REMARK  8 active torsions:
REMARK  status: ('A' for Active; 'I' for Inactive)
REMARK    1  A    between atoms: C2A_3624  and  CAA_3628 
REMARK    2  A    between atoms: CAA_3628  and  CBA_3629 
REMARK    3  A    between atoms: CBA_3629  and  CGA_3630 
REMARK    4  A    between atoms: C3B_3635  and  CAB_3638 
REMARK    5  A    between atoms: C3C_3642  and  CAC_3645 
REMARK    6  A    between atoms: C3D_3649  and  CAD_3652 
REMARK    7  A    between atoms: CAD_3652  and  CBD_3653 
REMARK    8  A    between atoms: CBD_3653  and  CGD_3654 
ROOT
HETATM    1  CHA HEM A1501      54.428  81.031  10.081  1.00 32.49     0.038 A 
HETATM    2  CHB HEM A1501      55.287  78.365  13.992  1.00 33.03     0.038 A 
HETATM    3  CHC HEM A1501      55.528  74.394  11.262  1.00 31.60     0.038 A 
HETATM    4  CHD HEM A1501      54.602  77.054   7.353  1.00 32.68     0.038 A 
HETATM    5  C1A HEM A1501      54.615  80.651  11.406  1.00 34.41     0.079 A 
HETATM    6  C2A HEM A1501      54.582  81.524  12.584  1.00 36.00    -0.006 A 
HETATM    7  C3A HEM A1501      54.824  80.765  13.643  1.00 32.35    -0.007 A 
HETATM    8  C4A HEM A1501      54.998  79.429  13.160  1.00 32.21     0.079 A 
HETATM    9  CMA HEM A1501      54.884  81.195  15.077  1.00 32.95     0.032 C 
HETATM   10  C1B HEM A1501      55.460  77.050  13.601  1.00 34.74     0.079 A 
HETATM   11  C2B HEM A1501      55.784  75.964  14.518  1.00 35.37    -0.003 A 
HETATM   12  C3B HEM A1501      55.866  74.852  13.742  1.00 34.85     0.015 A 
HETATM   13  C4B HEM A1501      55.569  75.257  12.371  1.00 33.67     0.083 A 
HETATM   14  CMB HEM A1501      55.979  76.121  16.001  1.00 34.31     0.033 C 
HETATM   15  C1C HEM A1501      55.272  74.709   9.955  1.00 32.38     0.079 A 
HETATM   16  C2C HEM A1501      55.162  73.764   8.878  1.00 31.12    -0.003 A 
HETATM   17  C3C HEM A1501      54.884  74.489   7.764  1.00 32.72     0.015 A 
HETATM   18  C4C HEM A1501      54.834  75.904   8.181  1.00 33.62     0.083 A 
HETATM   19  CMC HEM A1501      55.338  72.269   9.051  1.00 29.89     0.033 C 
HETATM   20  C1D HEM A1501      54.524  78.417   7.731  1.00 33.95     0.079 A 
HETATM   21  C2D HEM A1501      54.282  79.506   6.834  1.00 33.11    -0.007 A 
HETATM   22  C3D HEM A1501      54.233  80.628   7.597  1.00 34.25    -0.006 A 
HETATM   23  C4D HEM A1501      54.440  80.220   8.973  1.00 33.58     0.079 A 
HETATM   24  CMD HEM A1501      54.115  79.423   5.369  1.00 30.36     0.032 C 
HETATM   25  NA  HEM A1501      54.843  79.361  11.807  1.00 32.28    -0.246 N 
HETATM   26  NB  HEM A1501      55.352  76.588  12.311  1.00 33.15    -0.246 N 
HETATM   27  NC  HEM A1501      55.046  75.965   9.497  1.00 33.61    -0.246 N 
HETATM   28  ND  HEM A1501      54.610  78.872   9.017  1.00 33.81    -0.246 N 
HETATM   29 FE   HEM A1501      54.952  77.691  10.637  1.00 27.43     0.000 Fe
ENDROOT
BRANCH   6  30
HETATM   30  CAA HEM A1501      54.323  82.989  12.628  1.00 40.53     0.039 C 
BRANCH  30  31
HETATM   31  CBA HEM A1501      52.883  83.293  12.993  1.00 47.08     0.102 C 
BRANCH  31  32
HETATM   32  CGA HEM A1501      52.579  84.758  13.147  1.00 50.37     0.186 C 
HETATM   33  O1A HEM A1501      51.416  85.093  13.470  1.00 52.41    -0.647 OA
HETATM   34  O2A HEM A1501      53.509  85.576  12.992  1.00 52.71    -0.647 OA
ENDBRANCH  31  32
ENDBRANCH  30  31
ENDBRANCH   6  30
BRANCH  22  35
HETATM   35  CAD HEM A1501      54.004  81.989   7.057  1.00 36.17     0.039 C 
BRANCH  35  36
HETATM   36  CBD HEM A1501      52.516  82.292   6.884  1.00 38.78     0.102 C 
BRANCH  36  37
HETATM   37  CGD HEM A1501      52.256  83.662   6.286  1.00 41.58     0.186 C 
HETATM   38  O1D HEM A1501      51.281  83.668   5.503  1.00 42.40    -0.647 OA
HETATM   39  O2D HEM A1501      52.957  84.721   6.608  1.00 43.17    -0.647 OA
ENDBRANCH  36  37
ENDBRANCH  35  36
ENDBRANCH  22  35
BRANCH  17  40
HETATM   40  CAC HEM A1501      54.676  74.008   6.393  1.00 35.84     0.001 C 
HETATM   41  CBC HEM A1501      53.566  74.148   5.652  1.00 39.50     0.000 C 
ENDBRANCH  17  40
BRANCH  12  42
HETATM   42  CAB HEM A1501      56.176  73.445  14.085  1.00 34.32     0.001 C 
HETATM   43  CBB HEM A1501      56.843  72.941  15.104  1.00 37.81     0.000 C 
ENDBRANCH  12  42
TORSDOF 8
