MODEL 1
REMARK VINA RESULT:     -13.5      0.000      0.000
REMARK  8 active torsions:
REMARK  status: ('A' for Active; 'I' for Inactive)
REMARK    1  A    between atoms: C2A_3624  and  CAA_3628 
REMARK    2  A    between atoms: CAA_3628  and  CBA_3629 
REMARK    3  A    between atoms: CBA_3629  and  CGA_3630 
REMARK    4  A    between atoms: C3B_3635  and  CAB_3638 
REMARK    5  A    between atoms: C3C_3642  and  CAC_3645 
REMARK    6  A    between atoms: C3D_3649  and  CAD_3652 
REMARK    7  A    between atoms: CAD_3652  and  CBD_3653 
REMARK    8  A    between atoms: CBD_3653  and  CGD_3654 
ROOT
HETATM    1  CHA HEM A1501      54.590  80.863   9.792  1.00 32.49     0.038 A 
HETATM    2  CHB HEM A1501      54.700  76.768   7.271  1.00 33.03     0.038 A 
HETATM    3  CHC HEM A1501      55.526  74.271  11.316  1.00 31.60     0.038 A 
HETATM    4  CHD HEM A1501      55.482  78.380  13.832  1.00 32.68     0.038 A 
HETATM    5  C1A HEM A1501      54.573  79.964   8.730  1.00 34.41     0.079 A 
HETATM    6  C2A HEM A1501      54.395  80.284   7.310  1.00 36.00    -0.006 A 
HETATM    7  C3A HEM A1501      54.427  79.140   6.642  1.00 32.35    -0.007 A 
HETATM    8  C4A HEM A1501      54.633  78.105   7.610  1.00 32.21     0.079 A 
HETATM    9  CMA HEM A1501      54.299  78.945   5.162  1.00 32.95     0.032 C 
HETATM   10  C1B HEM A1501      54.904  75.716   8.145  1.00 34.74     0.079 A 
HETATM   11  C2B HEM A1501      54.948  74.317   7.739  1.00 35.37    -0.003 A 
HETATM   12  C3B HEM A1501      55.165  73.618   8.884  1.00 34.85     0.015 A 
HETATM   13  C4B HEM A1501      55.277  74.588   9.969  1.00 33.67     0.083 A 
HETATM   14  CMB HEM A1501      54.773  73.826   6.328  1.00 34.31     0.033 C 
HETATM   15  C1C HEM A1501      55.628  75.126  12.380  1.00 32.38     0.079 A 
HETATM   16  C2C HEM A1501      55.968  74.745  13.723  1.00 31.12    -0.003 A 
HETATM   17  C3C HEM A1501      55.978  75.891  14.452  1.00 32.72     0.015 A 
HETATM   18  C4C HEM A1501      55.628  76.985  13.525  1.00 33.62     0.083 A 
HETATM   19  CMC HEM A1501      56.244  73.316  14.147  1.00 29.89     0.033 C 
HETATM   20  C1D HEM A1501      55.172  79.452  12.959  1.00 33.95     0.079 A 
HETATM   21  C2D HEM A1501      55.050  80.823  13.352  1.00 33.11    -0.007 A 
HETATM   22  C3D HEM A1501      54.798  81.526  12.218  1.00 34.25    -0.006 A 
HETATM   23  C4D HEM A1501      54.773  80.577  11.122  1.00 33.58     0.079 A 
HETATM   24  CMD HEM A1501      55.177  81.364  14.720  1.00 30.36     0.032 C 
HETATM   25  NA  HEM A1501      54.749  78.613   8.870  1.00 32.28    -0.246 N 
HETATM   26  NB  HEM A1501      55.093  75.841   9.501  1.00 33.15    -0.246 N 
HETATM   27  NC  HEM A1501      55.459  76.469  12.306  1.00 33.61    -0.246 N 
HETATM   28  ND  HEM A1501      55.006  79.329  11.608  1.00 33.81    -0.246 N 
HETATM   29 FE   HEM A1501      55.088  77.569  10.592  1.00 27.43     0.000 Fe
ENDROOT
BRANCH   6  30
HETATM   30  CAA HEM A1501      54.216  81.626   6.692  1.00 40.53     0.039 C 
BRANCH  30  31
HETATM   31  CBA HEM A1501      52.762  81.899   6.357  1.00 47.08     0.102 C 
BRANCH  31  32
HETATM   32  CGA HEM A1501      52.464  83.334   6.018  1.00 50.37     0.186 C 
HETATM   33  O1A HEM A1501      51.405  83.591   5.400  1.00 52.41    -0.647 OA
HETATM   34  O2A HEM A1501      53.260  84.213   6.407  1.00 52.71    -0.647 OA
ENDBRANCH  31  32
ENDBRANCH  30  31
ENDBRANCH   6  30
BRANCH  22  35
HETATM   35  CAD HEM A1501      54.598  82.994  12.180  1.00 36.17     0.039 C 
BRANCH  35  36
HETATM   36  CBD HEM A1501      53.172  83.386  12.565  1.00 38.78     0.102 C 
BRANCH  36  37
HETATM   37  CGD HEM A1501      53.061  84.820  13.047  1.00 41.58     0.186 C 
HETATM   38  O1D HEM A1501      54.153  85.429  13.000  1.00 42.40    -0.647 OA
HETATM   39  O2D HEM A1501      51.926  85.358  13.419  1.00 43.17    -0.647 OA
ENDBRANCH  36  37
ENDBRANCH  35  36
ENDBRANCH  22  35
BRANCH  17  40
HETATM   40  CAC HEM A1501      56.265  76.058  15.882  1.00 35.84     0.001 C 
HETATM   41  CBC HEM A1501      55.476  75.701  16.907  1.00 39.50     0.000 C 
ENDBRANCH  17  40
BRANCH  12  42
HETATM   42  CAB HEM A1501      55.294  72.163   9.128  1.00 34.32     0.001 C 
HETATM   43  CBB HEM A1501      55.922  71.233   8.436  1.00 37.81     0.000 C 
ENDBRANCH  12  42
TORSDOF 8
ENDMDL
MODEL 2
REMARK VINA RESULT:     -13.4      0.355      6.267
REMARK  8 active torsions:
REMARK  status: ('A' for Active; 'I' for Inactive)
REMARK    1  A    between atoms: C2A_3624  and  CAA_3628 
REMARK    2  A    between atoms: CAA_3628  and  CBA_3629 
REMARK    3  A    between atoms: CBA_3629  and  CGA_3630 
REMARK    4  A    between atoms: C3B_3635  and  CAB_3638 
REMARK    5  A    between atoms: C3C_3642  and  CAC_3645 
REMARK    6  A    between atoms: C3D_3649  and  CAD_3652 
REMARK    7  A    between atoms: CAD_3652  and  CBD_3653 
REMARK    8  A    between atoms: CBD_3653  and  CGD_3654 
ROOT
HETATM    1  CHA HEM A1501      54.643  80.830   9.572  1.00 32.49     0.038 A 
HETATM    2  CHB HEM A1501      55.454  78.416  13.654  1.00 33.03     0.038 A 
HETATM    3  CHC HEM A1501      55.542  74.259  11.207  1.00 31.60     0.038 A 
HETATM    4  CHD HEM A1501      54.664  76.669   7.128  1.00 32.68     0.038 A 
HETATM    5  C1A HEM A1501      54.830  80.537  10.919  1.00 34.41     0.079 A 
HETATM    6  C2A HEM A1501      54.836  81.491  12.033  1.00 36.00    -0.006 A 
HETATM    7  C3A HEM A1501      55.064  80.800  13.141  1.00 32.35    -0.007 A 
HETATM    8  C4A HEM A1501      55.191  79.429  12.751  1.00 32.21     0.079 A 
HETATM    9  CMA HEM A1501      55.151  81.327  14.541  1.00 32.95     0.032 C 
HETATM   10  C1B HEM A1501      55.581  77.072  13.354  1.00 34.74     0.079 A 
HETATM   11  C2B HEM A1501      55.879  76.043  14.343  1.00 35.37    -0.003 A 
HETATM   12  C3B HEM A1501      55.918  74.877  13.646  1.00 34.85     0.015 A 
HETATM   13  C4B HEM A1501      55.621  75.195  12.252  1.00 33.67     0.083 A 
HETATM   14  CMB HEM A1501      56.093  76.297  15.810  1.00 34.31     0.033 C 
HETATM   15  C1C HEM A1501      55.284  74.490   9.883  1.00 32.38     0.079 A 
HETATM   16  C2C HEM A1501      55.134  73.477   8.875  1.00 31.12    -0.003 A 
HETATM   17  C3C HEM A1501      54.869  74.131   7.715  1.00 32.72     0.015 A 
HETATM   18  C4C HEM A1501      54.868  75.572   8.033  1.00 33.62     0.083 A 
HETATM   19  CMC HEM A1501      55.264  71.992   9.151  1.00 29.89     0.033 C 
HETATM   20  C1D HEM A1501      54.633  78.056   7.410  1.00 33.95     0.079 A 
HETATM   21  C2D HEM A1501      54.418  79.088   6.441  1.00 33.11    -0.007 A 
HETATM   22  C3D HEM A1501      54.412  80.261   7.124  1.00 34.25    -0.006 A 
HETATM   23  C4D HEM A1501      54.619  79.943   8.523  1.00 33.58     0.079 A 
HETATM   24  CMD HEM A1501      54.234  78.908   4.987  1.00 30.36     0.032 C 
HETATM   25  NA  HEM A1501      55.021  79.271  11.408  1.00 32.28    -0.246 N 
HETATM   26  NB  HEM A1501      55.446  76.525  12.101  1.00 33.15    -0.246 N 
HETATM   27  NC  HEM A1501      55.094  75.718   9.339  1.00 33.61    -0.246 N 
HETATM   28  ND  HEM A1501      54.746  78.597   8.660  1.00 33.81    -0.246 N 
HETATM   29 FE   HEM A1501      55.066  77.521  10.357  1.00 27.43     0.000 Fe
ENDROOT
BRANCH   6  30
HETATM   30  CAA HEM A1501      54.625  82.963  11.977  1.00 40.53     0.039 C 
BRANCH  30  31
HETATM   31  CBA HEM A1501      53.268  83.356  12.529  1.00 47.08     0.102 C 
BRANCH  31  32
HETATM   32  CGA HEM A1501      53.178  84.783  12.994  1.00 50.37     0.186 C 
HETATM   33  O1A HEM A1501      54.228  85.467  13.021  1.00 52.41    -0.647 OA
HETATM   34  O2A HEM A1501      52.056  85.241  13.290  1.00 52.71    -0.647 OA
ENDBRANCH  31  32
ENDBRANCH  30  31
ENDBRANCH   6  30
BRANCH  22  35
HETATM   35  CAD HEM A1501      54.221  81.588   6.492  1.00 36.17     0.039 C 
BRANCH  35  36
HETATM   36  CBD HEM A1501      52.748  81.878   6.207  1.00 38.78     0.102 C 
BRANCH  36  37
HETATM   37  CGD HEM A1501      52.470  83.351   5.967  1.00 41.58     0.186 C 
HETATM   38  O1D HEM A1501      51.376  83.546   5.393  1.00 42.40    -0.647 OA
HETATM   39  O2D HEM A1501      53.278  84.300   6.370  1.00 43.17    -0.647 OA
ENDBRANCH  36  37
ENDBRANCH  35  36
ENDBRANCH  22  35
BRANCH  17  40
HETATM   40  CAC HEM A1501      54.632  73.562   6.383  1.00 35.84     0.001 C 
HETATM   41  CBC HEM A1501      53.605  72.783   6.012  1.00 39.50     0.000 C 
ENDBRANCH  17  40
BRANCH  12  42
HETATM   42  CAB HEM A1501      56.187  73.489  14.084  1.00 34.32     0.001 C 
HETATM   43  CBB HEM A1501      57.043  73.023  14.971  1.00 37.81     0.000 C 
ENDBRANCH  12  42
TORSDOF 8
ENDMDL
MODEL 3
REMARK VINA RESULT:     -10.7      1.232      1.484
REMARK  8 active torsions:
REMARK  status: ('A' for Active; 'I' for Inactive)
REMARK    1  A    between atoms: C2A_3624  and  CAA_3628 
REMARK    2  A    between atoms: CAA_3628  and  CBA_3629 
REMARK    3  A    between atoms: CBA_3629  and  CGA_3630 
REMARK    4  A    between atoms: C3B_3635  and  CAB_3638 
REMARK    5  A    between atoms: C3C_3642  and  CAC_3645 
REMARK    6  A    between atoms: C3D_3649  and  CAD_3652 
REMARK    7  A    between atoms: CAD_3652  and  CBD_3653 
REMARK    8  A    between atoms: CBD_3653  and  CGD_3654 
ROOT
HETATM    1  CHA HEM A1501      54.610  80.786  10.387  1.00 32.49     0.038 A 
HETATM    2  CHB HEM A1501      54.759  76.991   7.434  1.00 33.03     0.038 A 
HETATM    3  CHC HEM A1501      55.686  74.087  11.174  1.00 31.60     0.038 A 
HETATM    4  CHD HEM A1501      55.602  77.897  14.122  1.00 32.68     0.038 A 
HETATM    5  C1A HEM A1501      54.596  80.007   9.234  1.00 34.41     0.079 A 
HETATM    6  C2A HEM A1501      54.392  80.475   7.859  1.00 36.00    -0.006 A 
HETATM    7  C3A HEM A1501      54.435  79.411   7.071  1.00 32.35    -0.007 A 
HETATM    8  C4A HEM A1501      54.673  78.282   7.917  1.00 32.21     0.079 A 
HETATM    9  CMA HEM A1501      54.290  79.376   5.580  1.00 32.95     0.032 C 
HETATM   10  C1B HEM A1501      54.995  75.855   8.187  1.00 34.74     0.079 A 
HETATM   11  C2B HEM A1501      55.058  74.509   7.630  1.00 35.37    -0.003 A 
HETATM   12  C3B HEM A1501      55.303  73.694   8.690  1.00 34.85     0.015 A 
HETATM   13  C4B HEM A1501      55.413  74.543   9.873  1.00 33.67     0.083 A 
HETATM   14  CMB HEM A1501      54.872  74.170   6.177  1.00 34.31     0.033 C 
HETATM   15  C1C HEM A1501      55.787  74.823  12.324  1.00 32.38     0.079 A 
HETATM   16  C2C HEM A1501      56.152  74.305  13.613  1.00 31.12    -0.003 A 
HETATM   17  C3C HEM A1501      56.152  75.365  14.462  1.00 32.72     0.015 A 
HETATM   18  C4C HEM A1501      55.770  76.546  13.664  1.00 33.62     0.083 A 
HETATM   19  CMC HEM A1501      56.460  72.844  13.876  1.00 29.89     0.033 C 
HETATM   20  C1D HEM A1501      55.262  79.050  13.375  1.00 33.95     0.079 A 
HETATM   21  C2D HEM A1501      55.120  80.368  13.916  1.00 33.11    -0.007 A 
HETATM   22  C3D HEM A1501      54.840  81.185  12.868  1.00 34.25    -0.006 A 
HETATM   23  C4D HEM A1501      54.817  80.360  11.676  1.00 33.58     0.079 A 
HETATM   24  CMD HEM A1501      55.257  80.760  15.333  1.00 30.36     0.032 C 
HETATM   25  NA  HEM A1501      54.797  78.652   9.224  1.00 32.28    -0.246 N 
HETATM   26  NB  HEM A1501      55.200  75.835   9.546  1.00 33.15    -0.246 N 
HETATM   27  NC  HEM A1501      55.593  76.162  12.398  1.00 33.61    -0.246 N 
HETATM   28  ND  HEM A1501      55.080  79.072  12.020  1.00 33.81    -0.246 N 
HETATM   29 FE   HEM A1501      55.178  77.435  10.818  1.00 27.43     0.000 Fe
ENDROOT
BRANCH   6  30
HETATM   30  CAA HEM A1501      54.180  81.873   7.392  1.00 40.53     0.039 C 
BRANCH  30  31
HETATM   31  CBA HEM A1501      52.707  82.186   7.213  1.00 47.08     0.102 C 
BRANCH  31  32
HETATM   32  CGA HEM A1501      52.332  82.626   5.824  1.00 50.37     0.186 C 
HETATM   33  O1A HEM A1501      51.245  82.228   5.348  1.00 52.41    -0.647 OA
HETATM   34  O2A HEM A1501      53.098  83.407   5.223  1.00 52.71    -0.647 OA
ENDBRANCH  31  32
ENDBRANCH  30  31
ENDBRANCH   6  30
BRANCH  22  35
HETATM   35  CAD HEM A1501      54.613  82.644  12.992  1.00 36.17     0.039 C 
BRANCH  35  36
HETATM   36  CBD HEM A1501      55.882  83.386  13.411  1.00 38.78     0.102 C 
BRANCH  36  37
HETATM   37  CGD HEM A1501      56.893  83.514  12.287  1.00 41.58     0.186 C 
HETATM   38  O1D HEM A1501      57.069  84.699  11.931  1.00 42.40    -0.647 OA
HETATM   39  O2D HEM A1501      57.537  82.486  11.793  1.00 43.17    -0.647 OA
ENDBRANCH  36  37
ENDBRANCH  35  36
ENDBRANCH  22  35
BRANCH  17  40
HETATM   40  CAC HEM A1501      56.456  75.382  15.898  1.00 35.84     0.001 C 
HETATM   41  CBC HEM A1501      55.691  74.893  16.886  1.00 39.50     0.000 C 
ENDBRANCH  17  40
BRANCH  12  42
HETATM   42  CAB HEM A1501      55.461  72.224   8.772  1.00 34.32     0.001 C 
HETATM   43  CBB HEM A1501      55.421  71.418   9.814  1.00 37.81     0.000 C 
ENDBRANCH  12  42
TORSDOF 8
ENDMDL
