REMARK  8 active torsions:
REMARK  status: ('A' for Active; 'I' for Inactive)
REMARK    1  A    between atoms: C2A_6  and  CAA_10 
REMARK    2  A    between atoms: CAA_10  and  CBA_11 
REMARK    3  A    between atoms: CBA_11  and  CGA_12 
REMARK    4  A    between atoms: C3B_17  and  CAB_20 
REMARK    5  A    between atoms: C3C_24  and  CAC_27 
REMARK    6  A    between atoms: C3D_31  and  CAD_34 
REMARK    7  A    between atoms: CAD_34  and  CBD_35 
REMARK    8  A    between atoms: CBD_35  and  CGD_36 
ROOT
HETATM    1  CHA HEM A1501      56.155  87.020 -26.949  1.00 32.49     0.064 A 
HETATM    2  CHB HEM A1501      58.982  84.770 -30.125  1.00 33.03     0.064 A 
HETATM    3  CHC HEM A1501      56.696  80.612 -29.252  1.00 31.60     0.064 A 
HETATM    4  CHD HEM A1501      53.908  82.850 -26.023  1.00 32.68     0.064 A 
HETATM    5  C1A HEM A1501      57.157  86.769 -27.881  1.00 34.41     0.066 A 
HETATM    6  C2A HEM A1501      58.126  87.734 -28.410  1.00 36.00    -0.021 A 
HETATM    7  C3A HEM A1501      58.888  87.089 -29.282  1.00 32.35    -0.025 A 
HETATM    8  C4A HEM A1501      58.427  85.734 -29.306  1.00 32.21     0.066 A 
HETATM    9  CMA HEM A1501      60.029  87.643 -30.079  1.00 32.95     0.051 C 
HETATM   10  C1B HEM A1501      58.598  83.444 -30.198  1.00 34.74     0.066 A 
HETATM   11  C2B HEM A1501      59.204  82.468 -31.095  1.00 35.37    -0.021 A 
HETATM   12  C3B HEM A1501      58.547  81.304 -30.856  1.00 34.85     0.000 A 
HETATM   13  C4B HEM A1501      57.567  81.567 -29.805  1.00 33.67     0.070 A 
HETATM   14  CMB HEM A1501      60.318  82.766 -32.061  1.00 34.31     0.052 C 
HETATM   15  C1C HEM A1501      55.750  80.794 -28.281  1.00 32.38     0.066 A 
HETATM   16  C2C HEM A1501      54.946  79.755 -27.698  1.00 31.12    -0.021 A 
HETATM   17  C3C HEM A1501      54.160  80.359 -26.770  1.00 32.72     0.000 A 
HETATM   18  C4C HEM A1501      54.495  81.796 -26.802  1.00 33.62     0.070 A 
HETATM   19  CMC HEM A1501      55.031  78.298 -28.106  1.00 29.89     0.052 C 
HETATM   20  C1D HEM A1501      54.227  84.230 -26.016  1.00 33.95     0.066 A 
HETATM   21  C2D HEM A1501      53.591  85.217 -25.197  1.00 33.11    -0.025 A 
HETATM   22  C3D HEM A1501      54.219  86.393 -25.455  1.00 34.25    -0.021 A 
HETATM   23  C4D HEM A1501      55.253  86.121 -26.435  1.00 33.58     0.066 A 
HETATM   24  CMD HEM A1501      52.475  84.997 -24.256  1.00 30.36     0.051 C 
HETATM   25  NA  HEM A1501      57.396  85.540 -28.435  1.00 32.28    -0.248 N 
HETATM   26  NB  HEM A1501      57.603  82.867 -29.444  1.00 33.15    -0.248 N 
HETATM   27  NC  HEM A1501      55.463  81.985 -27.700  1.00 33.61    -0.248 N 
HETATM   28  ND  HEM A1501      55.231  84.798 -26.750  1.00 33.81    -0.248 N 
HETATM   29 FE   HEM A1501      56.412  83.789 -28.063  1.00 27.43     0.000 Fe
ENDROOT
BRANCH   6  30
HETATM   30  CAA HEM A1501      58.268  89.173 -28.057  1.00 40.53     0.052 C 
BRANCH  30  31
HETATM   31  CBA HEM A1501      59.369  89.395 -27.039  1.00 47.08     0.118 C 
BRANCH  31  32
HETATM   32  CGA HEM A1501      59.627  90.840 -26.710  1.00 50.37     0.172 C 
HETATM   33  O1A HEM A1501      60.537  91.110 -25.893  1.00 52.41    -0.648 OA
HETATM   34  O2A HEM A1501      58.955  91.711 -27.299  1.00 52.71    -0.648 OA
ENDBRANCH  31  32
ENDBRANCH  30  31
ENDBRANCH   6  30
BRANCH  22  35
HETATM   35  CAD HEM A1501      53.864  87.681 -24.815  1.00 36.17     0.052 C 
BRANCH  35  36
HETATM   36  CBD HEM A1501      54.547  87.852 -23.458  1.00 38.78     0.118 C 
BRANCH  36  37
HETATM   37  CGD HEM A1501      54.160  89.142 -22.759  1.00 41.58     0.172 C 
HETATM   38  O1D HEM A1501      54.059  89.006 -21.520  1.00 42.40    -0.648 OA
HETATM   39  O2D HEM A1501      54.005  90.276 -23.397  1.00 43.17    -0.648 OA
ENDBRANCH  36  37
ENDBRANCH  35  36
ENDBRANCH  22  35
BRANCH  12  40
HETATM   40  CAB HEM A1501      58.695  79.960 -31.459  1.00 34.32     0.004 C 
HETATM   41  CBB HEM A1501      59.178  79.597 -32.631  1.00 37.81     0.012 C 
ENDBRANCH  12  40
BRANCH  17  42
HETATM   42  CAC HEM A1501      53.155  79.748 -25.891  1.00 35.84     0.004 C 
HETATM   43  CBC HEM A1501      53.161  79.739 -24.549  1.00 39.50     0.012 C 
ENDBRANCH  17  42
TORSDOF 8
