MODEL 1
REMARK VINA RESULT:     -13.4      0.000      0.000
REMARK  8 active torsions:
REMARK  status: ('A' for Active; 'I' for Inactive)
REMARK    1  A    between atoms: C2A_6  and  CAA_10 
REMARK    2  A    between atoms: CAA_10  and  CBA_11 
REMARK    3  A    between atoms: CBA_11  and  CGA_12 
REMARK    4  A    between atoms: C3B_17  and  CAB_20 
REMARK    5  A    between atoms: C3C_24  and  CAC_27 
REMARK    6  A    between atoms: C3D_31  and  CAD_34 
REMARK    7  A    between atoms: CAD_34  and  CBD_35 
REMARK    8  A    between atoms: CBD_35  and  CGD_36 
ROOT
HETATM    1  CHA HEM A1501      54.669  80.671   9.768  1.00 32.49     0.064 A 
HETATM    2  CHB HEM A1501      54.749  76.523   7.332  1.00 33.03     0.064 A 
HETATM    3  CHC HEM A1501      55.536  74.103  11.430  1.00 31.60     0.064 A 
HETATM    4  CHD HEM A1501      55.521  78.261  13.862  1.00 32.68     0.064 A 
HETATM    5  C1A HEM A1501      54.648  79.750   8.725  1.00 34.41     0.066 A 
HETATM    6  C2A HEM A1501      54.477  80.043   7.298  1.00 36.00    -0.021 A 
HETATM    7  C3A HEM A1501      54.501  78.885   6.654  1.00 32.35    -0.025 A 
HETATM    8  C4A HEM A1501      54.694  77.868   7.643  1.00 32.21     0.066 A 
HETATM    9  CMA HEM A1501      54.377  78.662   5.177  1.00 32.95     0.051 C 
HETATM   10  C1B HEM A1501      54.940  75.488   8.227  1.00 34.74     0.066 A 
HETATM   11  C2B HEM A1501      54.972  74.080   7.851  1.00 35.37    -0.021 A 
HETATM   12  C3B HEM A1501      55.178  73.403   9.010  1.00 34.85     0.000 A 
HETATM   13  C4B HEM A1501      55.295  74.394  10.076  1.00 33.67     0.070 A 
HETATM   14  CMB HEM A1501      54.797  73.562   6.449  1.00 34.31     0.052 C 
HETATM   15  C1C HEM A1501      55.642  74.977  12.476  1.00 32.38     0.066 A 
HETATM   16  C2C HEM A1501      55.974  74.620  13.829  1.00 31.12    -0.021 A 
HETATM   17  C3C HEM A1501      55.992  75.781  14.534  1.00 32.72     0.000 A 
HETATM   18  C4C HEM A1501      55.656  76.859  13.584  1.00 33.62     0.070 A 
HETATM   19  CMC HEM A1501      56.234  73.198  14.283  1.00 29.89     0.052 C 
HETATM   20  C1D HEM A1501      55.225  79.318  12.966  1.00 33.95     0.066 A 
HETATM   21  C2D HEM A1501      55.115  80.698  13.331  1.00 33.11    -0.025 A 
HETATM   22  C3D HEM A1501      54.874  81.381  12.182  1.00 34.25    -0.021 A 
HETATM   23  C4D HEM A1501      54.843  80.410  11.105  1.00 33.58     0.066 A 
HETATM   24  CMD HEM A1501      55.242  81.266  14.688  1.00 30.36     0.051 C 
HETATM   25  NA  HEM A1501      54.809  78.401   8.893  1.00 32.28    -0.248 N 
HETATM   26  NB  HEM A1501      55.125  75.638   9.582  1.00 33.15    -0.248 N 
HETATM   27  NC  HEM A1501      55.486  76.320  12.375  1.00 33.61    -0.248 N 
HETATM   28  ND  HEM A1501      55.064  79.169  11.617  1.00 33.81    -0.248 N 
HETATM   29 FE   HEM A1501      55.132  77.388  10.637  1.00 27.43     0.000 Fe
ENDROOT
BRANCH   6  30
HETATM   30  CAA HEM A1501      54.314  81.373   6.652  1.00 40.53     0.052 C 
BRANCH  30  31
HETATM   31  CBA HEM A1501      52.858  81.679   6.359  1.00 47.08     0.118 C 
BRANCH  31  32
HETATM   32  CGA HEM A1501      52.579  83.125   6.048  1.00 50.37     0.172 C 
HETATM   33  O1A HEM A1501      51.544  83.404   5.402  1.00 52.41    -0.648 OA
HETATM   34  O2A HEM A1501      53.366  83.988   6.487  1.00 52.71    -0.648 OA
ENDBRANCH  31  32
ENDBRANCH  30  31
ENDBRANCH   6  30
BRANCH  22  35
HETATM   35  CAD HEM A1501      54.688  82.849  12.112  1.00 36.17     0.052 C 
BRANCH  35  36
HETATM   36  CBD HEM A1501      53.265  83.263  12.490  1.00 38.78     0.118 C 
BRANCH  36  37
HETATM   37  CGD HEM A1501      53.161  84.722  12.893  1.00 41.58     0.172 C 
HETATM   38  O1D HEM A1501      54.210  85.362  12.659  1.00 42.40    -0.648 OA
HETATM   39  O2D HEM A1501      52.065  85.247  13.382  1.00 43.17    -0.648 OA
ENDBRANCH  36  37
ENDBRANCH  35  36
ENDBRANCH  22  35
BRANCH  12  40
HETATM   40  CAB HEM A1501      55.292  71.952   9.284  1.00 34.32     0.004 C 
HETATM   41  CBB HEM A1501      56.056  71.034   8.726  1.00 37.81     0.012 C 
ENDBRANCH  12  40
BRANCH  17  42
HETATM   42  CAC HEM A1501      56.275  75.974  15.962  1.00 35.84     0.004 C 
HETATM   43  CBC HEM A1501      55.443  75.728  16.986  1.00 39.50     0.012 C 
ENDBRANCH  17  42
TORSDOF 8
ENDMDL
MODEL 2
REMARK VINA RESULT:     -13.4      0.402      6.245
REMARK  8 active torsions:
REMARK  status: ('A' for Active; 'I' for Inactive)
REMARK    1  A    between atoms: C2A_6  and  CAA_10 
REMARK    2  A    between atoms: CAA_10  and  CBA_11 
REMARK    3  A    between atoms: CBA_11  and  CGA_12 
REMARK    4  A    between atoms: C3B_17  and  CAB_20 
REMARK    5  A    between atoms: C3C_24  and  CAC_27 
REMARK    6  A    between atoms: C3D_31  and  CAD_34 
REMARK    7  A    between atoms: CAD_34  and  CBD_35 
REMARK    8  A    between atoms: CBD_35  and  CGD_36 
ROOT
HETATM    1  CHA HEM A1501      54.663  80.831   9.562  1.00 32.49     0.064 A 
HETATM    2  CHB HEM A1501      55.487  78.421  13.642  1.00 33.03     0.064 A 
HETATM    3  CHC HEM A1501      55.555  74.260  11.200  1.00 31.60     0.064 A 
HETATM    4  CHD HEM A1501      54.665  76.666   7.123  1.00 32.68     0.064 A 
HETATM    5  C1A HEM A1501      54.856  80.539  10.908  1.00 34.41     0.066 A 
HETATM    6  C2A HEM A1501      54.869  81.494  12.021  1.00 36.00    -0.021 A 
HETATM    7  C3A HEM A1501      55.100  80.805  13.129  1.00 32.35    -0.025 A 
HETATM    8  C4A HEM A1501      55.222  79.432  12.740  1.00 32.21     0.066 A 
HETATM    9  CMA HEM A1501      55.195  81.333  14.527  1.00 32.95     0.051 C 
HETATM   10  C1B HEM A1501      55.610  77.076  13.345  1.00 34.74     0.066 A 
HETATM   11  C2B HEM A1501      55.911  76.047  14.333  1.00 35.37    -0.021 A 
HETATM   12  C3B HEM A1501      55.944  74.881  13.638  1.00 34.85     0.000 A 
HETATM   13  C4B HEM A1501      55.641  75.198  12.244  1.00 33.67     0.070 A 
HETATM   14  CMB HEM A1501      56.131  76.303  15.799  1.00 34.31     0.052 C 
HETATM   15  C1C HEM A1501      55.292  74.490   9.878  1.00 32.38     0.066 A 
HETATM   16  C2C HEM A1501      55.135  73.475   8.872  1.00 31.12    -0.021 A 
HETATM   17  C3C HEM A1501      54.866  74.129   7.713  1.00 32.72     0.000 A 
HETATM   18  C4C HEM A1501      54.869  75.570   8.028  1.00 33.62     0.070 A 
HETATM   19  CMC HEM A1501      55.263  71.991   9.149  1.00 29.89     0.052 C 
HETATM   20  C1D HEM A1501      54.638  78.054   7.403  1.00 33.95     0.066 A 
HETATM   21  C2D HEM A1501      54.420  79.085   6.433  1.00 33.11    -0.025 A 
HETATM   22  C3D HEM A1501      54.420  80.259   7.115  1.00 34.25    -0.021 A 
HETATM   23  C4D HEM A1501      54.633  79.943   8.514  1.00 33.58     0.066 A 
HETATM   24  CMD HEM A1501      54.230  78.904   4.981  1.00 30.36     0.051 C 
HETATM   25  NA  HEM A1501      55.046  79.275  11.397  1.00 32.28    -0.248 N 
HETATM   26  NB  HEM A1501      55.468  76.528  12.092  1.00 33.15    -0.248 N 
HETATM   27  NC  HEM A1501      55.102  75.717   9.334  1.00 33.61    -0.248 N 
HETATM   28  ND  HEM A1501      54.758  78.596   8.652  1.00 33.81    -0.248 N 
HETATM   29 FE   HEM A1501      55.083  77.522  10.349  1.00 27.43     0.000 Fe
ENDROOT
BRANCH   6  30
HETATM   30  CAA HEM A1501      54.660  82.967  11.963  1.00 40.53     0.052 C 
BRANCH  30  31
HETATM   31  CBA HEM A1501      53.285  83.358  12.467  1.00 47.08     0.118 C 
BRANCH  31  32
HETATM   32  CGA HEM A1501      53.191  84.769  12.980  1.00 50.37     0.172 C 
HETATM   33  O1A HEM A1501      54.232  85.465  12.998  1.00 52.41    -0.648 OA
HETATM   34  O2A HEM A1501      52.072  85.202  13.322  1.00 52.71    -0.648 OA
ENDBRANCH  31  32
ENDBRANCH  30  31
ENDBRANCH   6  30
BRANCH  22  35
HETATM   35  CAD HEM A1501      54.229  81.585   6.482  1.00 36.17     0.052 C 
BRANCH  35  36
HETATM   36  CBD HEM A1501      52.750  81.922   6.296  1.00 38.78     0.118 C 
BRANCH  36  37
HETATM   37  CGD HEM A1501      52.511  83.387   5.982  1.00 41.58     0.172 C 
HETATM   38  O1D HEM A1501      51.440  83.579   5.366  1.00 42.40    -0.648 OA
HETATM   39  O2D HEM A1501      53.326  84.338   6.370  1.00 43.17    -0.648 OA
ENDBRANCH  36  37
ENDBRANCH  35  36
ENDBRANCH  22  35
BRANCH  12  40
HETATM   40  CAB HEM A1501      56.211  73.493  14.077  1.00 34.32     0.004 C 
HETATM   41  CBB HEM A1501      57.043  73.029  14.988  1.00 37.81     0.012 C 
ENDBRANCH  12  40
BRANCH  17  42
HETATM   42  CAC HEM A1501      54.622  73.559   6.382  1.00 35.84     0.004 C 
HETATM   43  CBC HEM A1501      53.559  72.833   6.001  1.00 39.50     0.012 C 
ENDBRANCH  17  42
TORSDOF 8
ENDMDL
