          AutoDock 4.2 Release 4.2.6   
         (C) 1989-2012 The Scripps Research Institute
        AutoDock comes with ABSOLUTELY NO WARRANTY.
        AutoDock is free software, and you are welcome
        to redistribute it under certain conditions;
        for details type 'autodock4 -C'

                     main.cc  $Revision: 1.213 $

                   Compiled on Jul 18 2014 at 15:34:58


This file was created at:			4:56 42" p.m., 11/28/2024
                   on host:		"NORA"
Current Working Directory = "C:\Users\georg\Desktop\Dock\executables_autodock_tools"

      ________________________________________________________________

                   SETTING UP DEFAULT PARAMETER LIBRARY
      ________________________________________________________________


Random number generator was seeded with values 4568, 1732805802.
Docking parameter file (DPF) used for this docking:		C:/Users/georg/Desktop/Dock/executables_autodock_tools/receptor.dpf
DPF> autodock_parameter_version 4.2       # used by autodock to validate parameter set

	Autodock parameter version 4.2.
DPF> outlev 1                             # diagnostic output level

Output Level = 1  ADT-COMPATIBLE OUTPUT DURING DOCKING.
DPF> intelec                              # calculate internal electrostatics

Electrostatic energies will be calculated for all non-bonds between moving atoms.
DPF> seed pid time                        # seeds for random generator

Random number generator was seeded with values 4568, 1732805802.
DPF> ligand_types A C Fe OA N             # atoms types in ligand

DPF> fld receptor.maps.fld                # grid_data_file

Opening Grid Map Dimensions file:		receptor.maps.fld
Grid Point Spacing =				0.375 Angstroms

Even Number of User-specified Grid Points =	50 x-points
						50 y-points
						50 z-points

Coordinates of Central Grid Point of Maps =	(54.062, 78.922, 10.685)
Macromolecule file used to create Grid Maps =	receptor.pdbqt
Grid Parameter file used to create Grid Maps =	C:/Users/georg/Desktop/Dock/executables_autodock_tools/ligand.gpf
Minimum coordinates in grid = (44.687, 69.547, 1.310)
Maximum coordinates in grid = (63.437, 88.297, 20.060)

DPF> map receptor.A.map                   # atom-specific affinity map

DPF> map receptor.C.map                   # atom-specific affinity map

DPF> map receptor.Fe.map                  # atom-specific affinity map

DPF> map receptor.OA.map                  # atom-specific affinity map

DPF> map receptor.N.map                   # atom-specific affinity map

DPF> elecmap receptor.e.map               # electrostatics map

DPF> desolvmap receptor.d.map             # desolvation map

DPF> move ligand.pdbqt                    # small molecule

1,4-interactions will be _ignored_ in the non-bonded internal energy calculation.

Ligand PDBQT file = "ligand.pdbqt"

INPUT LIGAND PDBQT FILE:
________________________

INPUT-LIGAND-PDBQT: REMARK  8 active torsions:
INPUT-LIGAND-PDBQT: REMARK  status: ('A' for Active; 'I' for Inactive)
INPUT-LIGAND-PDBQT: REMARK    1  A    between atoms: C2A_3624  and  CAA_3628 
INPUT-LIGAND-PDBQT: REMARK    2  A    between atoms: CAA_3628  and  CBA_3629 
INPUT-LIGAND-PDBQT: REMARK    3  A    between atoms: CBA_3629  and  CGA_3630 
INPUT-LIGAND-PDBQT: REMARK    4  A    between atoms: C3B_3635  and  CAB_3638 
INPUT-LIGAND-PDBQT: REMARK    5  A    between atoms: C3C_3642  and  CAC_3645 
INPUT-LIGAND-PDBQT: REMARK    6  A    between atoms: C3D_3649  and  CAD_3652 
INPUT-LIGAND-PDBQT: REMARK    7  A    between atoms: CAD_3652  and  CBD_3653 
INPUT-LIGAND-PDBQT: REMARK    8  A    between atoms: CBD_3653  and  CGD_3654 
INPUT-LIGAND-PDBQT: ROOT
INPUT-LIGAND-PDBQT: HETATM    1  CHA HEM A1501      54.428  81.031  10.081  1.00 32.49     0.038 A 
INPUT-LIGAND-PDBQT: HETATM    2  CHB HEM A1501      55.287  78.365  13.992  1.00 33.03     0.038 A 
INPUT-LIGAND-PDBQT: HETATM    3  CHC HEM A1501      55.528  74.394  11.262  1.00 31.60     0.038 A 
INPUT-LIGAND-PDBQT: HETATM    4  CHD HEM A1501      54.602  77.054   7.353  1.00 32.68     0.038 A 
INPUT-LIGAND-PDBQT: HETATM    5  C1A HEM A1501      54.615  80.651  11.406  1.00 34.41     0.079 A 
INPUT-LIGAND-PDBQT: HETATM    6  C2A HEM A1501      54.582  81.524  12.584  1.00 36.00    -0.006 A 
INPUT-LIGAND-PDBQT: HETATM    7  C3A HEM A1501      54.824  80.765  13.643  1.00 32.35    -0.007 A 
INPUT-LIGAND-PDBQT: HETATM    8  C4A HEM A1501      54.998  79.429  13.160  1.00 32.21     0.079 A 
INPUT-LIGAND-PDBQT: HETATM    9  CMA HEM A1501      54.884  81.195  15.077  1.00 32.95     0.032 C 
INPUT-LIGAND-PDBQT: HETATM   10  C1B HEM A1501      55.460  77.050  13.601  1.00 34.74     0.079 A 
INPUT-LIGAND-PDBQT: HETATM   11  C2B HEM A1501      55.784  75.964  14.518  1.00 35.37    -0.003 A 
INPUT-LIGAND-PDBQT: HETATM   12  C3B HEM A1501      55.866  74.852  13.742  1.00 34.85     0.015 A 
INPUT-LIGAND-PDBQT: HETATM   13  C4B HEM A1501      55.569  75.257  12.371  1.00 33.67     0.083 A 
INPUT-LIGAND-PDBQT: HETATM   14  CMB HEM A1501      55.979  76.121  16.001  1.00 34.31     0.033 C 
INPUT-LIGAND-PDBQT: HETATM   15  C1C HEM A1501      55.272  74.709   9.955  1.00 32.38     0.079 A 
INPUT-LIGAND-PDBQT: HETATM   16  C2C HEM A1501      55.162  73.764   8.878  1.00 31.12    -0.003 A 
INPUT-LIGAND-PDBQT: HETATM   17  C3C HEM A1501      54.884  74.489   7.764  1.00 32.72     0.015 A 
INPUT-LIGAND-PDBQT: HETATM   18  C4C HEM A1501      54.834  75.904   8.181  1.00 33.62     0.083 A 
INPUT-LIGAND-PDBQT: HETATM   19  CMC HEM A1501      55.338  72.269   9.051  1.00 29.89     0.033 C 
INPUT-LIGAND-PDBQT: HETATM   20  C1D HEM A1501      54.524  78.417   7.731  1.00 33.95     0.079 A 
INPUT-LIGAND-PDBQT: HETATM   21  C2D HEM A1501      54.282  79.506   6.834  1.00 33.11    -0.007 A 
INPUT-LIGAND-PDBQT: HETATM   22  C3D HEM A1501      54.233  80.628   7.597  1.00 34.25    -0.006 A 
INPUT-LIGAND-PDBQT: HETATM   23  C4D HEM A1501      54.440  80.220   8.973  1.00 33.58     0.079 A 
INPUT-LIGAND-PDBQT: HETATM   24  CMD HEM A1501      54.115  79.423   5.369  1.00 30.36     0.032 C 
INPUT-LIGAND-PDBQT: HETATM   25  NA  HEM A1501      54.843  79.361  11.807  1.00 32.28    -0.246 N 
INPUT-LIGAND-PDBQT: HETATM   26  NB  HEM A1501      55.352  76.588  12.311  1.00 33.15    -0.246 N 
INPUT-LIGAND-PDBQT: HETATM   27  NC  HEM A1501      55.046  75.965   9.497  1.00 33.61    -0.246 N 
INPUT-LIGAND-PDBQT: HETATM   28  ND  HEM A1501      54.610  78.872   9.017  1.00 33.81    -0.246 N 
INPUT-LIGAND-PDBQT: HETATM   29 FE   HEM A1501      54.952  77.691  10.637  1.00 27.43     0.000 Fe
INPUT-LIGAND-PDBQT: ENDROOT
INPUT-LIGAND-PDBQT: BRANCH  22  30
INPUT-LIGAND-PDBQT: HETATM   30  CAD HEM A1501      54.004  81.989   7.057  1.00 36.17     0.039 C 
INPUT-LIGAND-PDBQT: BRANCH  30  31
INPUT-LIGAND-PDBQT: HETATM   31  CBD HEM A1501      52.516  82.292   6.884  1.00 38.78     0.102 C 
INPUT-LIGAND-PDBQT: BRANCH  31  32
INPUT-LIGAND-PDBQT: HETATM   32  CGD HEM A1501      52.256  83.662   6.286  1.00 41.58     0.186 C 
INPUT-LIGAND-PDBQT: HETATM   33  O1D HEM A1501      51.281  83.668   5.503  1.00 42.40    -0.647 OA
INPUT-LIGAND-PDBQT: HETATM   34  O2D HEM A1501      52.957  84.721   6.608  1.00 43.17    -0.647 OA
INPUT-LIGAND-PDBQT: ENDBRANCH  31  32
INPUT-LIGAND-PDBQT: ENDBRANCH  30  31
INPUT-LIGAND-PDBQT: ENDBRANCH  22  30
INPUT-LIGAND-PDBQT: BRANCH   6  35
INPUT-LIGAND-PDBQT: HETATM   35  CAA HEM A1501      54.323  82.989  12.628  1.00 40.53     0.039 C 
INPUT-LIGAND-PDBQT: BRANCH  35  36
INPUT-LIGAND-PDBQT: HETATM   36  CBA HEM A1501      52.883  83.293  12.993  1.00 47.08     0.102 C 
INPUT-LIGAND-PDBQT: BRANCH  36  37
INPUT-LIGAND-PDBQT: HETATM   37  CGA HEM A1501      52.579  84.758  13.147  1.00 50.37     0.186 C 
INPUT-LIGAND-PDBQT: HETATM   38  O1A HEM A1501      51.416  85.093  13.470  1.00 52.41    -0.647 OA
INPUT-LIGAND-PDBQT: HETATM   39  O2A HEM A1501      53.509  85.576  12.992  1.00 52.71    -0.647 OA
INPUT-LIGAND-PDBQT: ENDBRANCH  36  37
INPUT-LIGAND-PDBQT: ENDBRANCH  35  36
INPUT-LIGAND-PDBQT: ENDBRANCH   6  35
INPUT-LIGAND-PDBQT: BRANCH  17  40
INPUT-LIGAND-PDBQT: HETATM   40  CAC HEM A1501      54.676  74.008   6.393  1.00 35.84     0.001 C 
INPUT-LIGAND-PDBQT: HETATM   41  CBC HEM A1501      53.566  74.148   5.652  1.00 39.50     0.000 C 
INPUT-LIGAND-PDBQT: ENDBRANCH  17  40
INPUT-LIGAND-PDBQT: BRANCH  12  42
INPUT-LIGAND-PDBQT: HETATM   42  CAB HEM A1501      56.176  73.445  14.085  1.00 34.32     0.001 C 
INPUT-LIGAND-PDBQT: HETATM   43  CBB HEM A1501      56.843  72.941  15.104  1.00 37.81     0.000 C 
INPUT-LIGAND-PDBQT: ENDBRANCH  12  42
INPUT-LIGAND-PDBQT: TORSDOF 8
________________________________________________________________________________

Total charge on ligand                               =	-1.996 e
REMARK  8 active torsions:
REMARK  status: ('A' for Active; 'I' for Inactive)
REMARK    1  A    between atoms: C2A_3624  and  CAA_3628 
REMARK    2  A    between atoms: CAA_3628  and  CBA_3629 
REMARK    3  A    between atoms: CBA_3629  and  CGA_3630 
REMARK    4  A    between atoms: C3B_3635  and  CAB_3638 
REMARK    5  A    between atoms: C3C_3642  and  CAC_3645 
REMARK    6  A    between atoms: C3D_3649  and  CAD_3652 
REMARK    7  A    between atoms: CAD_3652  and  CBD_3653 
REMARK    8  A    between atoms: CBD_3653  and  CGD_3654 


Number of Rotatable Bonds in Small Molecule =	8 torsions
Number of atoms in ligand:  43

Number of non-hydrogen atoms in ligand:  43

Number of vibrational degrees of freedom of ligand:  123


Number of torsional degrees of freedom = 8
Estimated loss of torsional free energy upon binding = +2.3864 kcal/mol


DPF> about 54.495 78.699 10.493            # small molecule center

Small molecule center of rotation =	(+54.495, +78.699, +10.493)

DPF> tran0 random                         # initial coordinates/A or random

Initial translation =			(57.491, 78.079, 3.165) Angstroms
DPF> quaternion0 random                   # initial orientation

Each run will begin with a new, random initial orientation.
Initial quaternion,  (x,y,z,w) =	( 0.398, -0.286, 0.826, -0.280 ),
DPF> dihe0 random                         # initial dihedrals (relative) or random

DPF> torsdof 8                            # torsional degrees of freedom

Number of torsional degrees of freedom = 8
Free energy coefficient for torsional degrees of freedom = 0.2983, the factory default value.

Estimated loss of torsional free energy upon binding = +2.3864 kcal/mol

DPF> rmstol 2.0                           # cluster_tolerance/A

Maximum RMS tolerance for conformational cluster analysis = 2.00 Angstroms
DPF> extnrg 1000.0                        # external grid energy

External grid energy (beyond grid map walls) = 1000.00

DPF> e0max 0.0 10000                      # max initial energy; max number of retries

Using user-specified maximum number of retries for simanneal initialization, 10000 retries.
If the simanneal initial energy is greater than e0max, 0.000,
then a new, random initial state will be created.

DPF> ga_pop_size 150                      # number of individuals in population

A population of 150 individuals will be used
DPF> ga_num_evals 2500000                 # maximum number of energy evaluations

There will be at most 2500000 function evaluations used.
DPF> ga_num_generations 27000             # maximum number of generations

The GA will run for at most 27000 generations.
DPF> ga_elitism 1                         # number of top individuals to survive to next generation

The 1 best will be preserved each GA generation.
DPF> ga_mutation_rate 0.02                # rate of gene mutation

The mutation rate is 0.020000.
DPF> ga_crossover_rate 0.8                # rate of crossover

The crossover rate is 0.800000.
DPF> ga_window_size 10                    # 

The GA's selection window is 10 generations.
DPF> ga_cauchy_alpha 0.0                  # Alpha parameter of Cauchy distribution

The alpha parameter (for the Cauchy distribution) is being set to 0.000000.
DPF> ga_cauchy_beta 1.0                   # Beta parameter Cauchy distribution

The beta parameter (for the Cauchy distribution) is being set to 1.000000.
DPF> set_ga                               # set the above parameters for GA or LGA

DPF> sw_max_its 300                       # iterations of Solis & Wets local search

Solis & Wets algorithms will perform at most 300 iterations.
DPF> sw_max_succ 4                        # consecutive successes before changing rho

Solis & Wets algorithms expand rho every 4 in a row successes.
DPF> sw_max_fail 4                        # consecutive failures before changing rho

Solis & Wets algorithms contract rho every 4 in a row failures.
DPF> sw_rho 1.0                           # size of local search space to sample

rho is set to 1.000000.
DPF> sw_lb_rho 0.01                       # lower bound on rho

rho will never get smaller than 0.010000.
DPF> ls_search_freq 0.06                  # probability of performing local search on individual

Local search will be performed with frequency 0.060000.
DPF> set_psw1                             # set the above pseudo-Solis & Wets parameters

Creating a new Local Search object using the pseudo-Solis-Wets algorithm (pSW1) with the current settings.

DPF> unbound_model bound                  # state of unbound ligand

DPF> ga_run 100                           # do this many hybrid GA-LS runs

centering ligand on specified point: 54.495 78.699 10.493
Furthest true ligand atom from "about" center is 7.741 Angstroms (maxrad).
Number of requested GA dockings = 100 runs
Unbound model to be used is 'same as bound' [AutoDock 4.2 default].

	BEGINNING GENETIC ALGORITHM DOCKING 1 of 100
Run: 1 Seed: 483857688 68266262 [ Run 1 of 100 GA/GALS ]
Beginning LAMARCKIAN GENETIC ALGORITHM (LGA), with a maximum of 2500000 energy evaluations.

Final-Value: -23.582


	FINAL GENETIC ALGORITHM DOCKED STATE
	_______________________________________________


Detailed state:  trans 54.954 78.906 10.783 quatxyzw -0.175616 0.972503 -0.152626 -0.010121 center 54.495 78.699 10.493 ntor 8 136.4527 28.3340 -118.8151 171.8604 14.6695 3.4396 -173.2165 142.8562
State:	 54.954  78.906  10.783  -0.176  0.973 -0.153 -178.840    136.45   28.33 -118.82  171.86   14.67    3.44 -173.22  142.86

DOCKED: MODEL        1
DOCKED: USER    Run = 1
DOCKED: USER    DPF = C:/Users/georg/Desktop/Dock/executables_autodock_tools/receptor.dpf
DOCKED: USER  
DOCKED: USER    Estimated Free Energy of Binding    =  -20.73 kcal/mol  [=(1)+(2)+(3)-(4)]
DOCKED: USER    Estimated Inhibition Constant, Ki   =  642.71 aM (attomolar)  [Temperature = 298.15 K]
DOCKED: USER    
DOCKED: USER    (1) Final Intermolecular Energy     =  -23.11 kcal/mol
DOCKED: USER        vdW + Hbond + desolv Energy     =  -18.63 kcal/mol
DOCKED: USER        Electrostatic Energy            =   -4.49 kcal/mol
DOCKED: USER    (2) Final Total Internal Energy     =   -0.47 kcal/mol
DOCKED: USER    (3) Torsional Free Energy           =   +2.39 kcal/mol
DOCKED: USER    (4) Unbound System's Energy  [=(2)] =   -0.47 kcal/mol
DOCKED: USER    
DOCKED: USER    
DOCKED: USER    NEWDPF move ligand.pdbqt
DOCKED: USER    NEWDPF about 54.495000 78.699000 10.493000
DOCKED: USER    NEWDPF tran0 54.954375 78.906064 10.782995
DOCKED: USER    NEWDPF quaternion0 -0.175616 0.972503 -0.152626 -0.010121
DOCKED: USER    NEWDPF axisangle0 -0.175625 0.972553 -0.152634 -178.840249
DOCKED: USER    NEWDPF quat0 -0.175625 0.972553 -0.152634 -178.840249
DOCKED: USER    NEWDPF dihe0 136.45 28.33 -118.82 171.86 14.67 3.44 -173.22 142.86 
DOCKED: USER  keepresnum = 1 
DOCKED: USER  
DOCKED: REMARK  8 active torsions:
DOCKED: REMARK  status: ('A' for Active; 'I' for Inactive)
DOCKED: REMARK    1  A    between atoms: C2A_3624  and  CAA_3628 
DOCKED: REMARK    2  A    between atoms: CAA_3628  and  CBA_3629 
DOCKED: REMARK    3  A    between atoms: CBA_3629  and  CGA_3630 
DOCKED: REMARK    4  A    between atoms: C3B_3635  and  CAB_3638 
DOCKED: REMARK    5  A    between atoms: C3C_3642  and  CAC_3645 
DOCKED: REMARK    6  A    between atoms: C3D_3649  and  CAD_3652 
DOCKED: REMARK    7  A    between atoms: CAD_3652  and  CBD_3653 
DOCKED: REMARK    8  A    between atoms: CBD_3653  and  CGD_3654 
DOCKED: USER                              x       y       z     vdW  Elec       q    Type
DOCKED: USER                           _______ _______ _______ _____ _____    ______ ____
DOCKED: ROOT
DOCKED: ATOM      1  CHA HEM A1501      54.198  81.130  10.473 -0.27 +0.04    +0.038 A 
DOCKED: ATOM      2  CHB HEM A1501      54.581  77.309   7.575 -0.38 +0.03    +0.038 A 
DOCKED: ATOM      3  CHC HEM A1501      55.499  74.486  11.378 -0.40 +0.01    +0.038 A 
DOCKED: ATOM      4  CHD HEM A1501      55.181  78.323  14.274 -0.39 +0.02    +0.038 A 
DOCKED: ATOM      5  C1A HEM A1501      54.248  80.338   9.330 -0.25 +0.08    +0.079 A 
DOCKED: ATOM      6  C2A HEM A1501      54.070  80.782   7.944 -0.35 -0.01    -0.006 A 
DOCKED: ATOM      7  C3A HEM A1501      54.177  79.711   7.171 -0.36 -0.01    -0.007 A 
DOCKED: ATOM      8  C4A HEM A1501      54.431  78.601   8.039 -0.32 +0.06    +0.079 A 
DOCKED: ATOM      9  CMA HEM A1501      54.081  79.653   5.677 -0.47 +0.03    +0.032 C 
DOCKED: ATOM     10  C1B HEM A1501      54.835  76.191   8.349 -0.35 +0.04    +0.079 A 
DOCKED: ATOM     11  C2B HEM A1501      54.966  74.842   7.812 -0.46 -0.00    -0.003 A 
DOCKED: ATOM     12  C3B HEM A1501      55.208  74.050   8.888 -0.45 +0.01    +0.015 A 
DOCKED: ATOM     13  C4B HEM A1501      55.250  74.916  10.063 -0.36 +0.03    +0.083 A 
DOCKED: ATOM     14  CMB HEM A1501      54.839  74.480   6.358 -0.58 +0.02    +0.033 C 
DOCKED: ATOM     15  C1C HEM A1501      55.537  75.238  12.521 -0.34 +0.03    +0.079 A 
DOCKED: ATOM     16  C2C HEM A1501      55.881  74.749  13.828 -0.42 -0.00    -0.003 A 
DOCKED: ATOM     17  C3C HEM A1501      55.814  75.818  14.662 -0.39 +0.01    +0.015 A 
DOCKED: ATOM     18  C4C HEM A1501      55.413  76.975  13.838 -0.32 +0.03    +0.083 A 
DOCKED: ATOM     19  CMC HEM A1501      56.234  73.305  14.118 -0.56 +0.01    +0.033 C 
DOCKED: ATOM     20  C1D HEM A1501      54.820  79.455  13.501 -0.33 +0.04    +0.079 A 
DOCKED: ATOM     21  C2D HEM A1501      54.613  80.772  14.021 -0.40 -0.00    -0.007 A 
DOCKED: ATOM     22  C3D HEM A1501      54.335  81.566  12.955 -0.34 -0.00    -0.006 A 
DOCKED: ATOM     23  C4D HEM A1501      54.380  80.727  11.773 -0.23 +0.07    +0.079 A 
DOCKED: ATOM     24  CMD HEM A1501      54.690  81.186  15.437 -0.46 +0.01    +0.032 C 
DOCKED: ATOM     25  NA  HEM A1501      54.500  78.991   9.343 -0.16 -0.20    -0.246 N 
DOCKED: ATOM     26  NB  HEM A1501      54.998  76.195   9.713 -0.03 -0.12    -0.246 N 
DOCKED: ATOM     27  NC  HEM A1501      55.290  76.570  12.572 -0.16 -0.11    -0.246 N 
DOCKED: ATOM     28  ND  HEM A1501      54.680  79.454  12.142 -0.13 -0.17    -0.246 N 
DOCKED: ATOM     29 FE   HEM A1501      54.877  77.807  10.964 -0.07 +0.00    +0.000 Fe
DOCKED: ENDROOT
DOCKED: BRANCH  22  30
DOCKED: ATOM     30  CAD HEM A1501      54.050  83.017  13.053 -0.40 +0.04    +0.039 C 
DOCKED: BRANCH  30  31
DOCKED: ATOM     31  CBD HEM A1501      52.562  83.293  13.272 -0.52 +0.11    +0.102 C 
DOCKED: BRANCH  31  32
DOCKED: ATOM     32  CGD HEM A1501      52.177  84.731  12.978 -0.46 +0.27    +0.186 C 
DOCKED: ATOM     33  O1D HEM A1501      52.964  85.286  12.181 -0.59 -1.44    -0.647 OA
DOCKED: ATOM     34  O2D HEM A1501      51.104  85.293  13.476 -0.76 -0.94    -0.647 OA
DOCKED: ENDBRANCH  31  32
DOCKED: ENDBRANCH  30  31
DOCKED: ENDBRANCH  22  30
DOCKED: BRANCH   6  35
DOCKED: ATOM     35  CAA HEM A1501      53.820  82.165   7.453 -0.43 +0.06    +0.039 C 
DOCKED: BRANCH  35  36
DOCKED: ATOM     36  CBA HEM A1501      52.493  82.271   6.728 -0.57 +0.15    +0.102 C 
DOCKED: BRANCH  36  37
DOCKED: ATOM     37  CGA HEM A1501      52.174  83.650   6.218 -0.64 +0.35    +0.186 C 
DOCKED: ATOM     38  O1A HEM A1501      52.935  84.592   6.538 -1.17 -1.74    -0.647 OA
DOCKED: ATOM     39  O2A HEM A1501      51.193  83.789   5.459 -1.05 -1.31    -0.647 OA
DOCKED: ENDBRANCH  36  37
DOCKED: ENDBRANCH  35  36
DOCKED: ENDBRANCH   6  35
DOCKED: BRANCH  17  40
DOCKED: ATOM     40  CAC HEM A1501      56.072  75.863  16.107 -0.56 +0.00    +0.001 C 
DOCKED: ATOM     41  CBC HEM A1501      55.156  75.941  17.084 -0.65 +0.00    +0.000 C 
DOCKED: ENDBRANCH  17  40
DOCKED: BRANCH  12  42
DOCKED: ATOM     42  CAB HEM A1501      55.419  72.588   8.994 -0.54 +0.00    +0.001 C 
DOCKED: ATOM     43  CBB HEM A1501      55.506  71.667   8.056 -0.54 +0.00    +0.000 C 
DOCKED: ENDBRANCH  12  42
DOCKED: TORSDOF 8
DOCKED: TER
DOCKED: ENDMDL
________________________________________________________________________________


	BEGINNING GENETIC ALGORITHM DOCKING 2 of 100
Run: 2 Seed: 1466495296 977219890 [ Run 2 of 100 GA/GALS ]
Beginning LAMARCKIAN GENETIC ALGORITHM (LGA), with a maximum of 2500000 energy evaluations.

Final-Value: -22.937


	FINAL GENETIC ALGORITHM DOCKED STATE
	_______________________________________________


Detailed state:  trans 54.983 78.633 10.047 quatxyzw -0.171240 0.968354 -0.181550 -0.002616 center 54.495 78.699 10.493 ntor 8 133.1447 52.9932 -147.6299 117.8188 11.0354 7.9273 -138.4532 -164.6139
State:	 54.983  78.633  10.047  -0.171  0.968 -0.182 -179.700    133.14   52.99 -147.63  117.82   11.04    7.93 -138.45 -164.61

DOCKED: MODEL        2
DOCKED: USER    Run = 2
DOCKED: USER    DPF = C:/Users/georg/Desktop/Dock/executables_autodock_tools/receptor.dpf
DOCKED: USER  
DOCKED: USER    Estimated Free Energy of Binding    =  -20.12 kcal/mol  [=(1)+(2)+(3)-(4)]
DOCKED: USER    Estimated Inhibition Constant, Ki   =    1.78 fM (femtomolar)  [Temperature = 298.15 K]
DOCKED: USER    
DOCKED: USER    (1) Final Intermolecular Energy     =  -22.51 kcal/mol
DOCKED: USER        vdW + Hbond + desolv Energy     =  -17.96 kcal/mol
DOCKED: USER        Electrostatic Energy            =   -4.55 kcal/mol
DOCKED: USER    (2) Final Total Internal Energy     =   -0.43 kcal/mol
DOCKED: USER    (3) Torsional Free Energy           =   +2.39 kcal/mol
DOCKED: USER    (4) Unbound System's Energy  [=(2)] =   -0.43 kcal/mol
DOCKED: USER    
DOCKED: USER    
DOCKED: USER    NEWDPF move ligand.pdbqt
DOCKED: USER    NEWDPF about 54.495000 78.699000 10.493000
DOCKED: USER    NEWDPF tran0 54.983268 78.632799 10.046577
DOCKED: USER    NEWDPF quaternion0 -0.171240 0.968354 -0.181550 -0.002616
DOCKED: USER    NEWDPF axisangle0 -0.171240 0.968357 -0.181551 -179.700184
DOCKED: USER    NEWDPF quat0 -0.171240 0.968357 -0.181551 -179.700184
DOCKED: USER    NEWDPF dihe0 133.14 52.99 -147.63 117.82 11.04 7.93 -138.45 -164.61 
DOCKED: USER  keepresnum = 1 
DOCKED: USER  
DOCKED: REMARK  8 active torsions:
DOCKED: REMARK  status: ('A' for Active; 'I' for Inactive)
DOCKED: REMARK    1  A    between atoms: C2A_3624  and  CAA_3628 
DOCKED: REMARK    2  A    between atoms: CAA_3628  and  CBA_3629 
DOCKED: REMARK    3  A    between atoms: CBA_3629  and  CGA_3630 
DOCKED: REMARK    4  A    between atoms: C3B_3635  and  CAB_3638 
DOCKED: REMARK    5  A    between atoms: C3C_3642  and  CAC_3645 
DOCKED: REMARK    6  A    between atoms: C3D_3649  and  CAD_3652 
DOCKED: REMARK    7  A    between atoms: CAD_3652  and  CBD_3653 
DOCKED: REMARK    8  A    between atoms: CBD_3653  and  CGD_3654 
DOCKED: USER                              x       y       z     vdW  Elec       q    Type
DOCKED: USER                           _______ _______ _______ _____ _____    ______ ____
DOCKED: ROOT
DOCKED: ATOM      1  CHA HEM A1501      54.247  80.841   9.606 -0.28 +0.04    +0.038 A 
DOCKED: ATOM      2  CHB HEM A1501      54.583  76.850   6.941 -0.42 +0.02    +0.038 A 
DOCKED: ATOM      3  CHC HEM A1501      55.486  74.251  10.905 -0.41 +0.01    +0.038 A 
DOCKED: ATOM      4  CHD HEM A1501      55.215  78.258  13.566 -0.34 +0.02    +0.038 A 
DOCKED: ATOM      5  C1A HEM A1501      54.286  79.982   8.513 -0.28 +0.08    +0.079 A 
DOCKED: ATOM      6  C2A HEM A1501      54.108  80.344   7.103 -0.36 -0.01    -0.006 A 
DOCKED: ATOM      7  C3A HEM A1501      54.202  79.227   6.395 -0.38 -0.01    -0.007 A 
DOCKED: ATOM      8  C4A HEM A1501      54.448  78.169   7.327 -0.34 +0.06    +0.079 A 
DOCKED: ATOM      9  CMA HEM A1501      54.100  79.081   4.907 -0.50 +0.02    +0.032 C 
DOCKED: ATOM     10  C1B HEM A1501      54.829  75.778   7.780 -0.39 +0.04    +0.079 A 
DOCKED: ATOM     11  C2B HEM A1501      54.945  74.398   7.325 -0.48 -0.00    -0.003 A 
DOCKED: ATOM     12  C3B HEM A1501      55.183  73.670   8.446 -0.45 +0.01    +0.015 A 
DOCKED: ATOM     13  C4B HEM A1501      55.237  74.604   9.567 -0.38 +0.03    +0.083 A 
DOCKED: ATOM     14  CMB HEM A1501      54.809  73.951   5.895 -0.58 +0.02    +0.033 C 
DOCKED: ATOM     15  C1C HEM A1501      55.535  75.070  12.000 -0.35 +0.03    +0.079 A 
DOCKED: ATOM     16  C2C HEM A1501      55.879  74.657  13.333 -0.42 -0.00    -0.003 A 
DOCKED: ATOM     17  C3C HEM A1501      55.826  75.775  14.102 -0.38 +0.01    +0.015 A 
DOCKED: ATOM     18  C4C HEM A1501      55.433  76.884  13.211 -0.29 +0.04    +0.083 A 
DOCKED: ATOM     19  CMC HEM A1501      56.219  73.229  13.708 -0.52 +0.01    +0.033 C 
DOCKED: ATOM     20  C1D HEM A1501      54.863  79.345  12.728 -0.25 +0.05    +0.079 A 
DOCKED: ATOM     21  C2D HEM A1501      54.671  80.693  13.168 -0.33 -0.00    -0.007 A 
DOCKED: ATOM     22  C3D HEM A1501      54.397  81.424  12.057 -0.30 -0.01    -0.006 A 
DOCKED: ATOM     23  C4D HEM A1501      54.430  80.516  10.927 -0.20 +0.07    +0.079 A 
DOCKED: ATOM     24  CMD HEM A1501      54.757  81.190  14.556 -0.44 +0.02    +0.032 C 
DOCKED: ATOM     25  NA  HEM A1501      54.525  78.636   8.606 -0.20 -0.19    -0.246 N 
DOCKED: ATOM     26  NB  HEM A1501      54.997  75.862   9.142 -0.23 -0.12    -0.246 N 
DOCKED: ATOM     27  NC  HEM A1501      55.302  76.405  11.972 -0.08 -0.11    -0.246 N 
DOCKED: ATOM     28  ND  HEM A1501      54.719  79.264  11.371 -0.06 -0.18    -0.246 N 
DOCKED: ATOM     29 FE   HEM A1501      54.896  77.548  10.293 -0.07 +0.00    +0.000 Fe
DOCKED: ENDROOT
DOCKED: BRANCH  22  30
DOCKED: ATOM     30  CAD HEM A1501      54.126  82.881  12.068 -0.37 +0.05    +0.039 C 
DOCKED: BRANCH  30  31
DOCKED: ATOM     31  CBD HEM A1501      53.003  83.246  13.039 -0.49 +0.11    +0.102 C 
DOCKED: BRANCH  31  32
DOCKED: ATOM     32  CGD HEM A1501      52.491  84.661  12.847 -0.43 +0.28    +0.186 C 
DOCKED: ATOM     33  O1D HEM A1501      53.142  85.296  11.989 -0.47 -1.54    -0.647 OA
DOCKED: ATOM     34  O2D HEM A1501      51.446  85.129  13.484 -0.49 -0.93    -0.647 OA
DOCKED: ENDBRANCH  31  32
DOCKED: ENDBRANCH  30  31
DOCKED: ENDBRANCH  22  30
DOCKED: BRANCH   6  35
DOCKED: ATOM     35  CAA HEM A1501      53.870  81.697   6.530 -0.45 +0.05    +0.039 C 
DOCKED: BRANCH  35  36
DOCKED: ATOM     36  CBA HEM A1501      52.526  82.256   6.953 -0.56 +0.15    +0.102 C 
DOCKED: BRANCH  36  37
DOCKED: ATOM     37  CGA HEM A1501      52.184  83.583   6.332 -0.62 +0.35    +0.186 C 
DOCKED: ATOM     38  O1A HEM A1501      52.935  84.558   6.563 -1.18 -1.72    -0.647 OA
DOCKED: ATOM     39  O2A HEM A1501      51.192  83.646   5.577 -0.97 -1.31    -0.647 OA
DOCKED: ENDBRANCH  36  37
DOCKED: ENDBRANCH  35  36
DOCKED: ENDBRANCH   6  35
DOCKED: BRANCH  17  40
DOCKED: ATOM     40  CAC HEM A1501      56.088  75.904  15.540 -0.52 +0.00    +0.001 C 
DOCKED: ATOM     41  CBC HEM A1501      55.182  76.111  16.507 -0.58 +0.00    +0.000 C 
DOCKED: ENDBRANCH  17  40
DOCKED: BRANCH  12  42
DOCKED: ATOM     42  CAB HEM A1501      55.380  72.214   8.639 -0.55 +0.00    +0.001 C 
DOCKED: ATOM     43  CBB HEM A1501      55.873  71.303   7.825 -0.54 +0.00    +0.000 C 
DOCKED: ENDBRANCH  12  42
DOCKED: TORSDOF 8
DOCKED: TER
DOCKED: ENDMDL
________________________________________________________________________________


	BEGINNING GENETIC ALGORITHM DOCKING 3 of 100
Run: 3 Seed: 212457767 750116847 [ Run 3 of 100 GA/GALS ]
Beginning LAMARCKIAN GENETIC ALGORITHM (LGA), with a maximum of 2500000 energy evaluations.

Final-Value: -23.371


	FINAL GENETIC ALGORITHM DOCKED STATE
	_______________________________________________


Detailed state:  trans 54.890 79.101 10.844 quatxyzw -0.190993 0.968577 -0.157769 -0.022121 center 54.495 78.699 10.493 ntor 8 150.8963 -64.7662 -155.6118 162.7725 -1.5596 7.7172 -162.1548 149.4844
State:	 54.890  79.101  10.844  -0.191  0.969 -0.158 -177.465    150.90  -64.77 -155.61  162.77   -1.56    7.72 -162.15  149.48

DOCKED: MODEL        3
DOCKED: USER    Run = 3
DOCKED: USER    DPF = C:/Users/georg/Desktop/Dock/executables_autodock_tools/receptor.dpf
DOCKED: USER  
DOCKED: USER    Estimated Free Energy of Binding    =  -20.42 kcal/mol  [=(1)+(2)+(3)-(4)]
DOCKED: USER    Estimated Inhibition Constant, Ki   =    1.07 fM (femtomolar)  [Temperature = 298.15 K]
DOCKED: USER    
DOCKED: USER    (1) Final Intermolecular Energy     =  -22.81 kcal/mol
DOCKED: USER        vdW + Hbond + desolv Energy     =  -18.54 kcal/mol
DOCKED: USER        Electrostatic Energy            =   -4.27 kcal/mol
DOCKED: USER    (2) Final Total Internal Energy     =   -0.56 kcal/mol
DOCKED: USER    (3) Torsional Free Energy           =   +2.39 kcal/mol
DOCKED: USER    (4) Unbound System's Energy  [=(2)] =   -0.56 kcal/mol
DOCKED: USER    
DOCKED: USER    
DOCKED: USER    NEWDPF move ligand.pdbqt
DOCKED: USER    NEWDPF about 54.495000 78.699000 10.493000
DOCKED: USER    NEWDPF tran0 54.889816 79.101230 10.844387
DOCKED: USER    NEWDPF quaternion0 -0.190993 0.968577 -0.157769 -0.022121
DOCKED: USER    NEWDPF axisangle0 -0.191040 0.968814 -0.157808 -177.464910
DOCKED: USER    NEWDPF quat0 -0.191040 0.968814 -0.157808 -177.464910
DOCKED: USER    NEWDPF dihe0 150.90 -64.77 -155.61 162.77 -1.56 7.72 -162.15 149.48 
DOCKED: USER  keepresnum = 1 
DOCKED: USER  
DOCKED: REMARK  8 active torsions:
DOCKED: REMARK  status: ('A' for Active; 'I' for Inactive)
DOCKED: REMARK    1  A    between atoms: C2A_3624  and  CAA_3628 
DOCKED: REMARK    2  A    between atoms: CAA_3628  and  CBA_3629 
DOCKED: REMARK    3  A    between atoms: CBA_3629  and  CGA_3630 
DOCKED: REMARK    4  A    between atoms: C3B_3635  and  CAB_3638 
DOCKED: REMARK    5  A    between atoms: C3C_3642  and  CAC_3645 
DOCKED: REMARK    6  A    between atoms: C3D_3649  and  CAD_3652 
DOCKED: REMARK    7  A    between atoms: CAD_3652  and  CBD_3653 
DOCKED: REMARK    8  A    between atoms: CBD_3653  and  CGD_3654 
DOCKED: USER                              x       y       z     vdW  Elec       q    Type
DOCKED: USER                           _______ _______ _______ _____ _____    ______ ____
DOCKED: ROOT
DOCKED: ATOM      1  CHA HEM A1501      54.063  81.295  10.502 -0.29 +0.04    +0.038 A 
DOCKED: ATOM      2  CHB HEM A1501      54.638  77.470   7.642 -0.36 +0.03    +0.038 A 
DOCKED: ATOM      3  CHC HEM A1501      55.575  74.707  11.484 -0.39 +0.01    +0.038 A 
DOCKED: ATOM      4  CHD HEM A1501      55.064  78.551  14.344 -0.39 +0.02    +0.038 A 
DOCKED: ATOM      5  C1A HEM A1501      54.164  80.497   9.367 -0.25 +0.08    +0.079 A 
DOCKED: ATOM      6  C2A HEM A1501      53.999  80.925   7.974 -0.36 -0.01    -0.006 A 
DOCKED: ATOM      7  C3A HEM A1501      54.160  79.854   7.211 -0.36 -0.01    -0.007 A 
DOCKED: ATOM      8  C4A HEM A1501      54.434  78.759   8.092 -0.31 +0.06    +0.079 A 
DOCKED: ATOM      9  CMA HEM A1501      54.096  79.782   5.716 -0.47 +0.03    +0.032 C 
DOCKED: ATOM     10  C1B HEM A1501      54.915  76.367   8.429 -0.33 +0.05    +0.079 A 
DOCKED: ATOM     11  C2B HEM A1501      55.104  75.020   7.905 -0.46 -0.00    -0.003 A 
DOCKED: ATOM     12  C3B HEM A1501      55.352  74.244   8.992 -0.44 +0.01    +0.015 A 
DOCKED: ATOM     13  C4B HEM A1501      55.338  75.119  10.161 -0.34 +0.03    +0.083 A 
DOCKED: ATOM     14  CMB HEM A1501      55.019  74.643   6.452 -0.58 +0.02    +0.033 C 
DOCKED: ATOM     15  C1C HEM A1501      55.563  75.468  12.622 -0.33 +0.03    +0.079 A 
DOCKED: ATOM     16  C2C HEM A1501      55.897  75.000  13.939 -0.42 -0.00    -0.003 A 
DOCKED: ATOM     17  C3C HEM A1501      55.776  76.072  14.764 -0.40 +0.01    +0.015 A 
DOCKED: ATOM     18  C4C HEM A1501      55.352  77.209  13.923 -0.33 +0.03    +0.083 A 
DOCKED: ATOM     19  CMC HEM A1501      56.295  73.571  14.247 -0.55 +0.01    +0.033 C 
DOCKED: ATOM     20  C1D HEM A1501      54.681  79.664  13.555 -0.34 +0.05    +0.079 A 
DOCKED: ATOM     21  C2D HEM A1501      54.417  80.977  14.060 -0.41 -0.00    -0.007 A 
DOCKED: ATOM     22  C3D HEM A1501      54.134  81.753  12.983 -0.37 -0.00    -0.006 A 
DOCKED: ATOM     23  C4D HEM A1501      54.232  80.908  11.809 -0.24 +0.07    +0.079 A 
DOCKED: ATOM     24  CMD HEM A1501      54.451  81.402  15.474 -0.46 +0.01    +0.032 C 
DOCKED: ATOM     25  NA  HEM A1501      54.463  79.160   9.395 -0.17 -0.20    -0.246 N 
DOCKED: ATOM     26  NB  HEM A1501      55.050  76.386   9.797 +0.03 -0.12    -0.246 N 
DOCKED: ATOM     27  NC  HEM A1501      55.269  76.791  12.658 -0.16 -0.11    -0.246 N 
DOCKED: ATOM     28  ND  HEM A1501      54.568  79.648  12.193 -0.14 -0.18    -0.246 N 
DOCKED: ATOM     29 FE   HEM A1501      54.847  78.002  11.032 -0.07 +0.00    +0.000 Fe
DOCKED: ENDROOT
DOCKED: BRANCH  22  30
DOCKED: ATOM     30  CAD HEM A1501      53.796  83.194  13.064 -0.44 +0.04    +0.039 C 
DOCKED: BRANCH  30  31
DOCKED: ATOM     31  CBD HEM A1501      52.354  83.418  13.518 -0.48 +0.11    +0.102 C 
DOCKED: BRANCH  31  32
DOCKED: ATOM     32  CGD HEM A1501      51.979  84.886  13.598 -0.50 +0.26    +0.186 C 
DOCKED: ATOM     33  O1D HEM A1501      52.973  85.641  13.521 -0.42 -1.21    -0.647 OA
DOCKED: ATOM     34  O2D HEM A1501      50.739  85.297  13.687 -0.98 -0.89    -0.647 OA
DOCKED: ENDBRANCH  31  32
DOCKED: ENDBRANCH  30  31
DOCKED: ENDBRANCH  22  30
DOCKED: BRANCH   6  35
DOCKED: ATOM     35  CAA HEM A1501      53.712  82.295   7.467 -0.43 +0.06    +0.039 C 
DOCKED: BRANCH  35  36
DOCKED: ATOM     36  CBA HEM A1501      52.327  82.388   6.857 -0.57 +0.16    +0.102 C 
DOCKED: BRANCH  36  37
DOCKED: ATOM     37  CGA HEM A1501      52.008  83.725   6.246 -0.63 +0.36    +0.186 C 
DOCKED: ATOM     38  O1A HEM A1501      52.730  84.703   6.546 -1.03 -1.76    -0.647 OA
DOCKED: ATOM     39  O2A HEM A1501      51.065  83.794   5.431 -1.07 -1.34    -0.647 OA
DOCKED: ENDBRANCH  36  37
DOCKED: ENDBRANCH  35  36
DOCKED: ENDBRANCH   6  35
DOCKED: BRANCH  17  40
DOCKED: ATOM     40  CAC HEM A1501      56.002  76.136  16.213 -0.57 +0.00    +0.001 C 
DOCKED: ATOM     41  CBC HEM A1501      55.095  75.921  17.178 -0.66 +0.00    +0.000 C 
DOCKED: ENDBRANCH  17  40
DOCKED: BRANCH  12  42
DOCKED: ATOM     42  CAB HEM A1501      55.611  72.791   9.114 -0.50 +0.00    +0.001 C 
DOCKED: ATOM     43  CBB HEM A1501      54.774  71.784   9.265 -0.57 +0.00    +0.000 C 
DOCKED: ENDBRANCH  12  42
DOCKED: TORSDOF 8
DOCKED: TER
DOCKED: ENDMDL
________________________________________________________________________________


	BEGINNING GENETIC ALGORITHM DOCKING 4 of 100
Run: 4 Seed: 1631782623 648632736 [ Run 4 of 100 GA/GALS ]
Beginning LAMARCKIAN GENETIC ALGORITHM (LGA), with a maximum of 2500000 energy evaluations.

Final-Value: -23.439


	FINAL GENETIC ALGORITHM DOCKED STATE
	_______________________________________________


Detailed state:  trans 54.941 78.861 10.635 quatxyzw 0.182475 -0.971097 0.153343 0.012649 center 54.495 78.699 10.493 ntor 8 131.1883 -98.9841 -129.4647 -26.3101 10.3591 11.4365 -158.4394 155.1750
State:	 54.941  78.861  10.635   0.182 -0.971  0.153 178.550    131.19  -98.98 -129.46  -26.31   10.36   11.44 -158.44  155.17

DOCKED: MODEL        4
DOCKED: USER    Run = 4
DOCKED: USER    DPF = C:/Users/georg/Desktop/Dock/executables_autodock_tools/receptor.dpf
DOCKED: USER  
DOCKED: USER    Estimated Free Energy of Binding    =  -20.49 kcal/mol  [=(1)+(2)+(3)-(4)]
DOCKED: USER    Estimated Inhibition Constant, Ki   =  953.56 aM (attomolar)  [Temperature = 298.15 K]
DOCKED: USER    
DOCKED: USER    (1) Final Intermolecular Energy     =  -22.88 kcal/mol
DOCKED: USER        vdW + Hbond + desolv Energy     =  -18.61 kcal/mol
DOCKED: USER        Electrostatic Energy            =   -4.27 kcal/mol
DOCKED: USER    (2) Final Total Internal Energy     =   -0.56 kcal/mol
DOCKED: USER    (3) Torsional Free Energy           =   +2.39 kcal/mol
DOCKED: USER    (4) Unbound System's Energy  [=(2)] =   -0.56 kcal/mol
DOCKED: USER    
DOCKED: USER    
DOCKED: USER    NEWDPF move ligand.pdbqt
DOCKED: USER    NEWDPF about 54.495000 78.699000 10.493000
DOCKED: USER    NEWDPF tran0 54.941276 78.860784 10.635318
DOCKED: USER    NEWDPF quaternion0 0.182475 -0.971097 0.153343 0.012649
DOCKED: USER    NEWDPF axisangle0 0.182489 -0.971174 0.153355 178.550437
DOCKED: USER    NEWDPF quat0 0.182489 -0.971174 0.153355 178.550437
DOCKED: USER    NEWDPF dihe0 131.19 -98.98 -129.46 -26.31 10.36 11.44 -158.44 155.17 
DOCKED: USER  keepresnum = 1 
DOCKED: USER  
DOCKED: REMARK  8 active torsions:
DOCKED: REMARK  status: ('A' for Active; 'I' for Inactive)
DOCKED: REMARK    1  A    between atoms: C2A_3624  and  CAA_3628 
DOCKED: REMARK    2  A    between atoms: CAA_3628  and  CBA_3629 
DOCKED: REMARK    3  A    between atoms: CBA_3629  and  CGA_3630 
DOCKED: REMARK    4  A    between atoms: C3B_3635  and  CAB_3638 
DOCKED: REMARK    5  A    between atoms: C3C_3642  and  CAC_3645 
DOCKED: REMARK    6  A    between atoms: C3D_3649  and  CAD_3652 
DOCKED: REMARK    7  A    between atoms: CAD_3652  and  CBD_3653 
DOCKED: REMARK    8  A    between atoms: CBD_3653  and  CGD_3654 
DOCKED: USER                              x       y       z     vdW  Elec       q    Type
DOCKED: USER                           _______ _______ _______ _____ _____    ______ ____
DOCKED: ROOT
DOCKED: ATOM      1  CHA HEM A1501      54.153  81.073  10.320 -0.27 +0.04    +0.038 A 
DOCKED: ATOM      2  CHB HEM A1501      54.601  77.255   7.428 -0.38 +0.03    +0.038 A 
DOCKED: ATOM      3  CHC HEM A1501      55.548  74.449  11.237 -0.40 +0.01    +0.038 A 
DOCKED: ATOM      4  CHD HEM A1501      55.165  78.285  14.128 -0.38 +0.02    +0.038 A 
DOCKED: ATOM      5  C1A HEM A1501      54.219  80.280   9.179 -0.26 +0.08    +0.079 A 
DOCKED: ATOM      6  C2A HEM A1501      54.038  80.721   7.792 -0.35 -0.01    -0.006 A 
DOCKED: ATOM      7  C3A HEM A1501      54.164  79.651   7.020 -0.36 -0.01    -0.007 A 
DOCKED: ATOM      8  C4A HEM A1501      54.431  78.546   7.890 -0.32 +0.06    +0.079 A 
DOCKED: ATOM      9  CMA HEM A1501      54.073  79.590   5.526 -0.48 +0.03    +0.032 C 
DOCKED: ATOM     10  C1B HEM A1501      54.869  76.142   8.203 -0.35 +0.04    +0.079 A 
DOCKED: ATOM     11  C2B HEM A1501      55.021  74.795   7.669 -0.47 -0.00    -0.003 A 
DOCKED: ATOM     12  C3B HEM A1501      55.272  74.007   8.747 -0.45 +0.01    +0.015 A 
DOCKED: ATOM     13  C4B HEM A1501      55.297  74.874   9.921 -0.37 +0.03    +0.083 A 
DOCKED: ATOM     14  CMB HEM A1501      54.904  74.429   6.214 -0.58 +0.02    +0.033 C 
DOCKED: ATOM     15  C1C HEM A1501      55.572  75.203  12.379 -0.34 +0.03    +0.079 A 
DOCKED: ATOM     16  C2C HEM A1501      55.919  74.721  13.687 -0.43 -0.00    -0.003 A 
DOCKED: ATOM     17  C3C HEM A1501      55.834  75.790  14.521 -0.39 +0.01    +0.015 A 
DOCKED: ATOM     18  C4C HEM A1501      55.418  76.940  13.694 -0.31 +0.03    +0.083 A 
DOCKED: ATOM     19  CMC HEM A1501      56.292  73.282  13.980 -0.55 +0.01    +0.033 C 
DOCKED: ATOM     20  C1D HEM A1501      54.791  79.410  13.353 -0.32 +0.05    +0.079 A 
DOCKED: ATOM     21  C2D HEM A1501      54.562  80.725  13.870 -0.40 -0.00    -0.007 A 
DOCKED: ATOM     22  C3D HEM A1501      54.276  81.514  12.803 -0.34 -0.00    -0.006 A 
DOCKED: ATOM     23  C4D HEM A1501      54.337  80.674  11.622 -0.21 +0.07    +0.079 A 
DOCKED: ATOM     24  CMD HEM A1501      54.629  81.141  15.286 -0.45 +0.01    +0.032 C 
DOCKED: ATOM     25  NA  HEM A1501      54.490  78.938   9.194 -0.18 -0.20    -0.246 N 
DOCKED: ATOM     26  NB  HEM A1501      55.028  76.150   9.569 -0.13 -0.12    -0.246 N 
DOCKED: ATOM     27  NC  HEM A1501      55.305  76.532  12.428 -0.15 -0.11    -0.246 N 
DOCKED: ATOM     28  ND  HEM A1501      54.654  79.406  11.993 -0.11 -0.17    -0.246 N 
DOCKED: ATOM     29 FE   HEM A1501      54.880  77.761  10.817 -0.07 +0.00    +0.000 Fe
DOCKED: ENDROOT
DOCKED: BRANCH  22  30
DOCKED: ATOM     30  CAD HEM A1501      53.970  82.960  12.898 -0.42 +0.04    +0.039 C 
DOCKED: BRANCH  30  31
DOCKED: ATOM     31  CBD HEM A1501      52.572  83.212  13.465 -0.50 +0.10    +0.102 C 
DOCKED: BRANCH  31  32
DOCKED: ATOM     32  CGD HEM A1501      52.115  84.649  13.298 -0.51 +0.25    +0.186 C 
DOCKED: ATOM     33  O1D HEM A1501      52.830  85.291  12.498 -0.62 -1.34    -0.647 OA
DOCKED: ATOM     34  O2D HEM A1501      51.054  85.129  13.897 -0.68 -0.88    -0.647 OA
DOCKED: ENDBRANCH  31  32
DOCKED: ENDBRANCH  30  31
DOCKED: ENDBRANCH  22  30
DOCKED: BRANCH   6  35
DOCKED: ATOM     35  CAA HEM A1501      53.770  82.099   7.299 -0.45 +0.06    +0.039 C 
DOCKED: BRANCH  35  36
DOCKED: ATOM     36  CBA HEM A1501      52.334  82.261   6.841 -0.57 +0.16    +0.102 C 
DOCKED: BRANCH  36  37
DOCKED: ATOM     37  CGA HEM A1501      52.042  83.574   6.168 -0.62 +0.35    +0.186 C 
DOCKED: ATOM     38  O1A HEM A1501      51.088  83.629   5.359 -1.06 -1.31    -0.647 OA
DOCKED: ATOM     39  O2A HEM A1501      52.733  84.566   6.479 -1.12 -1.65    -0.647 OA
DOCKED: ENDBRANCH  36  37
DOCKED: ENDBRANCH  35  36
DOCKED: ENDBRANCH   6  35
DOCKED: BRANCH  17  40
DOCKED: ATOM     40  CAC HEM A1501      56.087  75.840  15.966 -0.55 +0.00    +0.001 C 
DOCKED: ATOM     41  CBC HEM A1501      55.174  76.004  16.935 -0.63 +0.00    +0.000 C 
DOCKED: ENDBRANCH  17  40
DOCKED: BRANCH  12  42
DOCKED: ATOM     42  CAB HEM A1501      55.504  72.548   8.855 -0.53 +0.00    +0.001 C 
DOCKED: ATOM     43  CBB HEM A1501      54.868  71.632   9.558 -0.55 +0.00    +0.000 C 
DOCKED: ENDBRANCH  12  42
DOCKED: TORSDOF 8
DOCKED: TER
DOCKED: ENDMDL
________________________________________________________________________________


	BEGINNING GENETIC ALGORITHM DOCKING 5 of 100
Run: 5 Seed: 2125711951 681250845 [ Run 5 of 100 GA/GALS ]
Beginning LAMARCKIAN GENETIC ALGORITHM (LGA), with a maximum of 2500000 energy evaluations.

Final-Value: -22.413


	FINAL GENETIC ALGORITHM DOCKED STATE
	_______________________________________________


Detailed state:  trans 54.317 78.830 10.786 quatxyzw 0.026173 -0.014680 0.026201 -0.999206 center 54.495 78.699 10.493 ntor 8 -9.3343 -23.6304 27.0203 179.8474 7.3759 -27.1077 -20.4682 154.8958
State:	 54.317  78.830  10.786   0.657 -0.368  0.658 -4.566     -9.33  -23.63   27.02  179.85    7.38  -27.11  -20.47  154.90

DOCKED: MODEL        5
DOCKED: USER    Run = 5
DOCKED: USER    DPF = C:/Users/georg/Desktop/Dock/executables_autodock_tools/receptor.dpf
DOCKED: USER  
DOCKED: USER    Estimated Free Energy of Binding    =  -19.50 kcal/mol  [=(1)+(2)+(3)-(4)]
DOCKED: USER    Estimated Inhibition Constant, Ki   =    5.04 fM (femtomolar)  [Temperature = 298.15 K]
DOCKED: USER    
DOCKED: USER    (1) Final Intermolecular Energy     =  -21.89 kcal/mol
DOCKED: USER        vdW + Hbond + desolv Energy     =  -17.32 kcal/mol
DOCKED: USER        Electrostatic Energy            =   -4.57 kcal/mol
DOCKED: USER    (2) Final Total Internal Energy     =   -0.52 kcal/mol
DOCKED: USER    (3) Torsional Free Energy           =   +2.39 kcal/mol
DOCKED: USER    (4) Unbound System's Energy  [=(2)] =   -0.52 kcal/mol
DOCKED: USER    
DOCKED: USER    
DOCKED: USER    NEWDPF move ligand.pdbqt
DOCKED: USER    NEWDPF about 54.495000 78.699000 10.493000
DOCKED: USER    NEWDPF tran0 54.316740 78.830152 10.786461
DOCKED: USER    NEWDPF quaternion0 0.026173 -0.014680 0.026201 -0.999206
DOCKED: USER    NEWDPF axisangle0 0.656993 -0.368490 0.657704 -4.566227
DOCKED: USER    NEWDPF quat0 0.656993 -0.368490 0.657704 -4.566227
DOCKED: USER    NEWDPF dihe0 -9.33 -23.63 27.02 179.85 7.38 -27.11 -20.47 154.90 
DOCKED: USER  keepresnum = 1 
DOCKED: USER  
DOCKED: REMARK  8 active torsions:
DOCKED: REMARK  status: ('A' for Active; 'I' for Inactive)
DOCKED: REMARK    1  A    between atoms: C2A_3624  and  CAA_3628 
DOCKED: REMARK    2  A    between atoms: CAA_3628  and  CBA_3629 
DOCKED: REMARK    3  A    between atoms: CBA_3629  and  CGA_3630 
DOCKED: REMARK    4  A    between atoms: C3B_3635  and  CAB_3638 
DOCKED: REMARK    5  A    between atoms: C3C_3642  and  CAC_3645 
DOCKED: REMARK    6  A    between atoms: C3D_3649  and  CAD_3652 
DOCKED: REMARK    7  A    between atoms: CAD_3652  and  CBD_3653 
DOCKED: REMARK    8  A    between atoms: CBD_3653  and  CGD_3654 
DOCKED: USER                              x       y       z     vdW  Elec       q    Type
DOCKED: USER                           _______ _______ _______ _____ _____    ______ ____
DOCKED: ROOT
DOCKED: ATOM      1  CHA HEM A1501      54.137  81.174  10.493 -0.28 +0.04    +0.038 A 
DOCKED: ATOM      2  CHB HEM A1501      55.027  78.352  14.286 -0.39 +0.02    +0.038 A 
DOCKED: ATOM      3  CHC HEM A1501      55.555  74.549  11.364 -0.40 +0.01    +0.038 A 
DOCKED: ATOM      4  CHD HEM A1501      54.599  77.362   7.571 -0.37 +0.03    +0.038 A 
DOCKED: ATOM      5  C1A HEM A1501      54.307  80.735  11.802 -0.23 +0.07    +0.079 A 
DOCKED: ATOM      6  C2A HEM A1501      54.195  81.541  13.022 -0.36 -0.00    -0.006 A 
DOCKED: ATOM      7  C3A HEM A1501      54.447  80.740  14.047 -0.42 -0.00    -0.007 A 
DOCKED: ATOM      8  C4A HEM A1501      54.705  79.443  13.502 -0.34 +0.05    +0.079 A 
DOCKED: ATOM      9  CMA HEM A1501      54.444  81.096  15.503 -0.36 +0.01    +0.032 C 
DOCKED: ATOM     10  C1B HEM A1501      55.281  77.071  13.834 -0.33 +0.03    +0.079 A 
DOCKED: ATOM     11  C2B HEM A1501      55.636  75.956  14.703 -0.39 -0.00    -0.003 A 
DOCKED: ATOM     12  C3B HEM A1501      55.799  74.892  13.873 -0.40 +0.01    +0.015 A 
DOCKED: ATOM     13  C4B HEM A1501      55.519  75.353  12.517 -0.33 +0.03    +0.083 A 
DOCKED: ATOM     14  CMB HEM A1501      55.781  76.043  16.197 -0.55 +0.01    +0.033 C 
DOCKED: ATOM     15  C1C HEM A1501      55.319  74.920  10.068 -0.36 +0.03    +0.079 A 
DOCKED: ATOM     16  C2C HEM A1501      55.290  74.029   8.941 -0.46 -0.00    -0.003 A 
DOCKED: ATOM     17  C3C HEM A1501      55.005  74.797   7.857 -0.45 +0.01    +0.015 A 
DOCKED: ATOM     18  C4C HEM A1501      54.868  76.183   8.345 -0.34 +0.05    +0.083 A 
DOCKED: ATOM     19  CMC HEM A1501      55.540  72.538   9.042 -0.51 +0.01    +0.033 C 
DOCKED: ATOM     20  C1D HEM A1501      54.438  78.697   8.016 -0.31 +0.06    +0.079 A 
DOCKED: ATOM     21  C2D HEM A1501      54.164  79.818   7.169 -0.36 -0.01    -0.007 A 
DOCKED: ATOM     22  C3D HEM A1501      54.034  80.894   7.987 -0.35 -0.01    -0.006 A 
DOCKED: ATOM     23  C4D HEM A1501      54.224  80.425   9.346 -0.25 +0.08    +0.079 A 
DOCKED: ATOM     24  CMD HEM A1501      54.042  79.805   5.697 -0.47 +0.03    +0.032 C 
DOCKED: ATOM     25  NA  HEM A1501      54.592  79.439  12.143 -0.12 -0.17    -0.246 N 
DOCKED: ATOM     26  NB  HEM A1501      55.234  76.673  12.519 -0.14 -0.11    -0.246 N 
DOCKED: ATOM     27  NC  HEM A1501      55.040  76.185   9.668 -0.09 -0.12    -0.246 N 
DOCKED: ATOM     28  ND  HEM A1501      54.464  79.087   9.326 -0.17 -0.20    -0.246 N 
DOCKED: ATOM     29 FE   HEM A1501      54.822  77.841  10.892 -0.07 +0.00    +0.000 Fe
DOCKED: ENDROOT
DOCKED: BRANCH  22  30
DOCKED: ATOM     30  CAD HEM A1501      53.748  82.268   7.511 -0.42 +0.06    +0.039 C 
DOCKED: BRANCH  30  31
DOCKED: ATOM     31  CBD HEM A1501      52.378  82.367   6.840 -0.57 +0.16    +0.102 C 
DOCKED: BRANCH  31  32
DOCKED: ATOM     32  CGD HEM A1501      52.154  83.697   6.145 -0.64 +0.35    +0.186 C 
DOCKED: ATOM     33  O1D HEM A1501      51.122  83.702   5.439 -1.06 -1.32    -0.647 OA
DOCKED: ATOM     34  O2D HEM A1501      52.939  84.730   6.321 -1.08 -1.75    -0.647 OA
DOCKED: ENDBRANCH  31  32
DOCKED: ENDBRANCH  30  31
DOCKED: ENDBRANCH  22  30
DOCKED: BRANCH   6  35
DOCKED: ATOM     35  CAA HEM A1501      53.857  82.986  13.133 -0.43 +0.04    +0.039 C 
DOCKED: BRANCH  35  36
DOCKED: ATOM     36  CBA HEM A1501      55.072  83.820  13.492 -0.24 +0.10    +0.102 C 
DOCKED: BRANCH  36  37
DOCKED: ATOM     37  CGA HEM A1501      55.052  85.217  12.935 -0.16 +0.29    +0.186 C 
DOCKED: ATOM     38  O1A HEM A1501      54.058  85.573  12.260 -0.28 -1.66    -0.647 OA
DOCKED: ATOM     39  O2A HEM A1501      56.003  85.977  13.207 -0.36 -0.78    -0.647 OA
DOCKED: ENDBRANCH  36  37
DOCKED: ENDBRANCH  35  36
DOCKED: ENDBRANCH   6  35
DOCKED: BRANCH  17  40
DOCKED: ATOM     40  CAC HEM A1501      54.861  74.379   6.458 -0.60 +0.00    +0.001 C 
DOCKED: ATOM     41  CBC HEM A1501      53.726  74.339   5.744 -0.66 +0.00    +0.000 C 
DOCKED: ENDBRANCH  17  40
DOCKED: BRANCH  12  42
DOCKED: ATOM     42  CAB HEM A1501      56.173  73.487  14.153 -0.57 +0.00    +0.001 C 
DOCKED: ATOM     43  CBB HEM A1501      57.145  72.993  14.894 -0.63 +0.00    +0.000 C 
DOCKED: ENDBRANCH  12  42
DOCKED: TORSDOF 8
DOCKED: TER
DOCKED: ENDMDL
________________________________________________________________________________


	BEGINNING GENETIC ALGORITHM DOCKING 6 of 100
Run: 6 Seed: 1755264608 350687584 [ Run 6 of 100 GA/GALS ]
Beginning LAMARCKIAN GENETIC ALGORITHM (LGA), with a maximum of 2500000 energy evaluations.

Final-Value: -23.403


	FINAL GENETIC ALGORITHM DOCKED STATE
	_______________________________________________


Detailed state:  trans 54.978 78.837 10.694 quatxyzw -0.165128 0.975418 -0.145823 -0.005375 center 54.495 78.699 10.493 ntor 8 128.8668 179.1725 -118.7689 144.3135 13.1380 22.5825 180.0000 162.5533
State:	 54.978  78.837  10.694  -0.165  0.975 -0.146 -179.384    128.87  179.17 -118.77  144.31   13.14   22.58  180.00  162.55

DOCKED: MODEL        6
DOCKED: USER    Run = 6
DOCKED: USER    DPF = C:/Users/georg/Desktop/Dock/executables_autodock_tools/receptor.dpf
DOCKED: USER  
DOCKED: USER    Estimated Free Energy of Binding    =  -20.51 kcal/mol  [=(1)+(2)+(3)-(4)]
DOCKED: USER    Estimated Inhibition Constant, Ki   =  926.99 aM (attomolar)  [Temperature = 298.15 K]
DOCKED: USER    
DOCKED: USER    (1) Final Intermolecular Energy     =  -22.89 kcal/mol
DOCKED: USER        vdW + Hbond + desolv Energy     =  -18.40 kcal/mol
DOCKED: USER        Electrostatic Energy            =   -4.50 kcal/mol
DOCKED: USER    (2) Final Total Internal Energy     =   -0.51 kcal/mol
DOCKED: USER    (3) Torsional Free Energy           =   +2.39 kcal/mol
DOCKED: USER    (4) Unbound System's Energy  [=(2)] =   -0.51 kcal/mol
DOCKED: USER    
DOCKED: USER    
DOCKED: USER    NEWDPF move ligand.pdbqt
DOCKED: USER    NEWDPF about 54.495000 78.699000 10.493000
DOCKED: USER    NEWDPF tran0 54.978114 78.836722 10.694071
DOCKED: USER    NEWDPF quaternion0 -0.165128 0.975418 -0.145823 -0.005375
DOCKED: USER    NEWDPF axisangle0 -0.165131 0.975432 -0.145825 -179.384118
DOCKED: USER    NEWDPF quat0 -0.165131 0.975432 -0.145825 -179.384118
DOCKED: USER    NEWDPF dihe0 128.87 179.17 -118.77 144.31 13.14 22.58 180.00 162.55 
DOCKED: USER  keepresnum = 1 
DOCKED: USER  
DOCKED: REMARK  8 active torsions:
DOCKED: REMARK  status: ('A' for Active; 'I' for Inactive)
DOCKED: REMARK    1  A    between atoms: C2A_3624  and  CAA_3628 
DOCKED: REMARK    2  A    between atoms: CAA_3628  and  CBA_3629 
DOCKED: REMARK    3  A    between atoms: CBA_3629  and  CGA_3630 
DOCKED: REMARK    4  A    between atoms: C3B_3635  and  CAB_3638 
DOCKED: REMARK    5  A    between atoms: C3C_3642  and  CAC_3645 
DOCKED: REMARK    6  A    between atoms: C3D_3649  and  CAD_3652 
DOCKED: REMARK    7  A    between atoms: CAD_3652  and  CBD_3653 
DOCKED: REMARK    8  A    between atoms: CBD_3653  and  CGD_3654 
DOCKED: USER                              x       y       z     vdW  Elec       q    Type
DOCKED: USER                           _______ _______ _______ _____ _____    ______ ____
DOCKED: ROOT
DOCKED: ATOM      1  CHA HEM A1501      54.270  81.081  10.418 -0.26 +0.04    +0.038 A 
DOCKED: ATOM      2  CHB HEM A1501      54.542  77.290   7.470 -0.39 +0.03    +0.038 A 
DOCKED: ATOM      3  CHC HEM A1501      55.427  74.398  11.229 -0.40 +0.01    +0.038 A 
DOCKED: ATOM      4  CHD HEM A1501      55.220  78.204  14.175 -0.38 +0.02    +0.038 A 
DOCKED: ATOM      5  C1A HEM A1501      54.292  80.302   9.266 -0.25 +0.08    +0.079 A 
DOCKED: ATOM      6  C2A HEM A1501      54.113  80.768   7.887 -0.34 -0.01    -0.006 A 
DOCKED: ATOM      7  C3A HEM A1501      54.190  79.705   7.099 -0.36 -0.01    -0.007 A 
DOCKED: ATOM      8  C4A HEM A1501      54.425  78.579   7.951 -0.32 +0.06    +0.079 A 
DOCKED: ATOM      9  CMA HEM A1501      54.079  79.669   5.605 -0.48 +0.03    +0.032 C 
DOCKED: ATOM     10  C1B HEM A1501      54.777  76.157   8.227 -0.36 +0.05    +0.079 A 
DOCKED: ATOM     11  C2B HEM A1501      54.872  74.812   7.672 -0.47 -0.00    -0.003 A 
DOCKED: ATOM     12  C3B HEM A1501      55.106  74.001   8.736 -0.45 +0.01    +0.015 A 
DOCKED: ATOM     13  C4B HEM A1501      55.176  74.850   9.922 -0.37 +0.03    +0.083 A 
DOCKED: ATOM     14  CMB HEM A1501      54.725  74.471   6.215 -0.59 +0.02    +0.033 C 
DOCKED: ATOM     15  C1C HEM A1501      55.491  75.135  12.381 -0.34 +0.03    +0.079 A 
DOCKED: ATOM     16  C2C HEM A1501      55.835  74.621  13.678 -0.43 -0.00    -0.003 A 
DOCKED: ATOM     17  C3C HEM A1501      55.800  75.681  14.527 -0.39 +0.01    +0.015 A 
DOCKED: ATOM     18  C4C HEM A1501      55.418  76.857  13.720 -0.31 +0.03    +0.083 A 
DOCKED: ATOM     19  CMC HEM A1501      56.158  73.166  13.947 -0.55 +0.01    +0.033 C 
DOCKED: ATOM     20  C1D HEM A1501      54.879  79.354  13.420 -0.32 +0.04    +0.079 A 
DOCKED: ATOM     21  C2D HEM A1501      54.706  80.669  13.958 -0.39 -0.00    -0.007 A 
DOCKED: ATOM     22  C3D HEM A1501      54.438  81.482  12.905 -0.32 -0.00    -0.006 A 
DOCKED: ATOM     23  C4D HEM A1501      54.453  80.658  11.712 -0.23 +0.07    +0.079 A 
DOCKED: ATOM     24  CMD HEM A1501      54.805  81.062  15.378 -0.43 +0.01    +0.032 C 
DOCKED: ATOM     25  NA  HEM A1501      54.514  78.950   9.260 -0.17 -0.20    -0.246 N 
DOCKED: ATOM     26  NB  HEM A1501      54.951  76.139   9.590 -0.09 -0.12    -0.246 N 
DOCKED: ATOM     27  NC  HEM A1501      55.275  76.471  12.451 -0.15 -0.11    -0.246 N 
DOCKED: ATOM     28  ND  HEM A1501      54.727  79.373  12.062 -0.13 -0.17    -0.246 N 
DOCKED: ATOM     29 FE   HEM A1501      54.878  77.738  10.862 -0.07 +0.00    +0.000 Fe
DOCKED: ENDROOT
DOCKED: BRANCH  22  30
DOCKED: ATOM     30  CAD HEM A1501      54.186  82.938  13.023 -0.39 +0.04    +0.039 C 
DOCKED: BRANCH  30  31
DOCKED: ATOM     31  CBD HEM A1501      52.693  83.256  13.092 -0.51 +0.11    +0.102 C 
DOCKED: BRANCH  31  32
DOCKED: ATOM     32  CGD HEM A1501      52.387  84.721  12.846 -0.41 +0.28    +0.186 C 
DOCKED: ATOM     33  O1D HEM A1501      53.276  85.292  12.177 -0.59 -1.50    -0.647 OA
DOCKED: ATOM     34  O2D HEM A1501      51.282  85.294  13.256 -0.65 -0.97    -0.647 OA
DOCKED: ENDBRANCH  31  32
DOCKED: ENDBRANCH  30  31
DOCKED: ENDBRANCH  22  30
DOCKED: BRANCH   6  35
DOCKED: ATOM     35  CAA HEM A1501      53.891  82.162   7.415 -0.42 +0.06    +0.039 C 
DOCKED: BRANCH  35  36
DOCKED: ATOM     36  CBA HEM A1501      52.424  82.436   7.147 -0.56 +0.16    +0.102 C 
DOCKED: BRANCH  36  37
DOCKED: ATOM     37  CGA HEM A1501      52.167  83.633   6.273 -0.63 +0.35    +0.186 C 
DOCKED: ATOM     38  O1A HEM A1501      52.935  84.617   6.371 -1.15 -1.70    -0.647 OA
DOCKED: ATOM     39  O2A HEM A1501      51.227  83.577   5.453 -1.04 -1.28    -0.647 OA
DOCKED: ENDBRANCH  36  37
DOCKED: ENDBRANCH  35  36
DOCKED: ENDBRANCH   6  35
DOCKED: BRANCH  17  40
DOCKED: ATOM     40  CAC HEM A1501      56.070  75.702  15.969 -0.55 +0.00    +0.001 C 
DOCKED: ATOM     41  CBC HEM A1501      55.183  75.929  16.950 -0.64 +0.00    +0.000 C 
DOCKED: ENDBRANCH  17  40
DOCKED: BRANCH  12  42
DOCKED: ATOM     42  CAB HEM A1501      55.284  72.533   8.822 -0.55 +0.00    +0.001 C 
DOCKED: ATOM     43  CBB HEM A1501      55.911  71.800   9.720 -0.56 +0.00    +0.000 C 
DOCKED: ENDBRANCH  12  42
DOCKED: TORSDOF 8
DOCKED: TER
DOCKED: ENDMDL
________________________________________________________________________________


	BEGINNING GENETIC ALGORITHM DOCKING 7 of 100
Run: 7 Seed: 1086287916 1095725633 [ Run 7 of 100 GA/GALS ]
Beginning LAMARCKIAN GENETIC ALGORITHM (LGA), with a maximum of 2500000 energy evaluations.

Final-Value: -23.490


	FINAL GENETIC ALGORITHM DOCKED STATE
	_______________________________________________


Detailed state:  trans 54.943 78.886 10.691 quatxyzw 0.171444 -0.974933 0.141684 0.006160 center 54.495 78.699 10.493 ntor 8 130.1233 40.2376 -116.0870 152.1747 13.0637 21.5518 179.6889 157.9045
State:	 54.943  78.886  10.691   0.171 -0.975  0.142 179.294    130.12   40.24 -116.09  152.17   13.06   21.55  179.69  157.90

DOCKED: MODEL        7
DOCKED: USER    Run = 7
DOCKED: USER    DPF = C:/Users/georg/Desktop/Dock/executables_autodock_tools/receptor.dpf
DOCKED: USER  
DOCKED: USER    Estimated Free Energy of Binding    =  -20.56 kcal/mol  [=(1)+(2)+(3)-(4)]
DOCKED: USER    Estimated Inhibition Constant, Ki   =  854.27 aM (attomolar)  [Temperature = 298.15 K]
DOCKED: USER    
DOCKED: USER    (1) Final Intermolecular Energy     =  -22.94 kcal/mol
DOCKED: USER        vdW + Hbond + desolv Energy     =  -18.48 kcal/mol
DOCKED: USER        Electrostatic Energy            =   -4.46 kcal/mol
DOCKED: USER    (2) Final Total Internal Energy     =   -0.55 kcal/mol
DOCKED: USER    (3) Torsional Free Energy           =   +2.39 kcal/mol
DOCKED: USER    (4) Unbound System's Energy  [=(2)] =   -0.55 kcal/mol
DOCKED: USER    
DOCKED: USER    
DOCKED: USER    NEWDPF move ligand.pdbqt
DOCKED: USER    NEWDPF about 54.495000 78.699000 10.493000
DOCKED: USER    NEWDPF tran0 54.942638 78.886202 10.690541
DOCKED: USER    NEWDPF quaternion0 0.171444 -0.974933 0.141684 0.006160
DOCKED: USER    NEWDPF axisangle0 0.171447 -0.974952 0.141687 179.294103
DOCKED: USER    NEWDPF quat0 0.171447 -0.974952 0.141687 179.294103
DOCKED: USER    NEWDPF dihe0 130.12 40.24 -116.09 152.17 13.06 21.55 179.69 157.90 
DOCKED: USER  keepresnum = 1 
DOCKED: USER  
DOCKED: REMARK  8 active torsions:
DOCKED: REMARK  status: ('A' for Active; 'I' for Inactive)
DOCKED: REMARK    1  A    between atoms: C2A_3624  and  CAA_3628 
DOCKED: REMARK    2  A    between atoms: CAA_3628  and  CBA_3629 
DOCKED: REMARK    3  A    between atoms: CBA_3629  and  CGA_3630 
DOCKED: REMARK    4  A    between atoms: C3B_3635  and  CAB_3638 
DOCKED: REMARK    5  A    between atoms: C3C_3642  and  CAC_3645 
DOCKED: REMARK    6  A    between atoms: C3D_3649  and  CAD_3652 
DOCKED: REMARK    7  A    between atoms: CAD_3652  and  CBD_3653 
DOCKED: REMARK    8  A    between atoms: CBD_3653  and  CGD_3654 
DOCKED: USER                              x       y       z     vdW  Elec       q    Type
DOCKED: USER                           _______ _______ _______ _____ _____    ______ ____
DOCKED: ROOT
DOCKED: ATOM      1  CHA HEM A1501      54.205  81.123  10.434 -0.27 +0.04    +0.038 A 
DOCKED: ATOM      2  CHB HEM A1501      54.520  77.360   7.454 -0.39 +0.03    +0.038 A 
DOCKED: ATOM      3  CHC HEM A1501      55.449  74.449  11.189 -0.40 +0.01    +0.038 A 
DOCKED: ATOM      4  CHD HEM A1501      55.199  78.229  14.166 -0.38 +0.02    +0.038 A 
DOCKED: ATOM      5  C1A HEM A1501      54.236  80.354   9.275 -0.25 +0.08    +0.079 A 
DOCKED: ATOM      6  C2A HEM A1501      54.048  80.829   7.900 -0.35 -0.01    -0.006 A 
DOCKED: ATOM      7  C3A HEM A1501      54.137  79.774   7.104 -0.36 -0.01    -0.007 A 
DOCKED: ATOM      8  C4A HEM A1501      54.388  78.644   7.946 -0.32 +0.06    +0.079 A 
DOCKED: ATOM      9  CMA HEM A1501      54.024  79.748   5.610 -0.47 +0.03    +0.032 C 
DOCKED: ATOM     10  C1B HEM A1501      54.771  76.224   8.202 -0.36 +0.05    +0.079 A 
DOCKED: ATOM     11  C2B HEM A1501      54.883  74.885   7.636 -0.47 -0.00    -0.003 A 
DOCKED: ATOM     12  C3B HEM A1501      55.129  74.068   8.693 -0.45 +0.01    +0.015 A 
DOCKED: ATOM     13  C4B HEM A1501      55.190  74.909   9.886 -0.37 +0.03    +0.083 A 
DOCKED: ATOM     14  CMB HEM A1501      54.737  74.555   6.176 -0.59 +0.02    +0.033 C 
DOCKED: ATOM     15  C1C HEM A1501      55.506  75.177  12.346 -0.34 +0.03    +0.079 A 
DOCKED: ATOM     16  C2C HEM A1501      55.858  74.658  13.639 -0.43 -0.00    -0.003 A 
DOCKED: ATOM     17  C3C HEM A1501      55.811  75.710  14.496 -0.39 +0.01    +0.015 A 
DOCKED: ATOM     18  C4C HEM A1501      55.413  76.888  13.700 -0.31 +0.03    +0.083 A 
DOCKED: ATOM     19  CMC HEM A1501      56.200  73.204  13.895 -0.54 +0.01    +0.033 C 
DOCKED: ATOM     20  C1D HEM A1501      54.842  79.380  13.421 -0.32 +0.04    +0.079 A 
DOCKED: ATOM     21  C2D HEM A1501      54.653  80.688  13.970 -0.39 -0.00    -0.007 A 
DOCKED: ATOM     22  C3D HEM A1501      54.372  81.506  12.923 -0.33 -0.00    -0.006 A 
DOCKED: ATOM     23  C4D HEM A1501      54.396  80.692  11.724 -0.23 +0.07    +0.079 A 
DOCKED: ATOM     24  CMD HEM A1501      54.749  81.071  15.393 -0.42 +0.01    +0.032 C 
DOCKED: ATOM     25  NA  HEM A1501      54.475  79.006   9.258 -0.17 -0.20    -0.246 N 
DOCKED: ATOM     26  NB  HEM A1501      54.948  76.198   9.565 -0.09 -0.12    -0.246 N 
DOCKED: ATOM     27  NC  HEM A1501      55.273  76.511  12.428 -0.14 -0.11    -0.246 N 
DOCKED: ATOM     28  ND  HEM A1501      54.687  79.408  12.063 -0.12 -0.17    -0.246 N 
DOCKED: ATOM     29 FE   HEM A1501      54.856  77.785  10.850 -0.07 +0.00    +0.000 Fe
DOCKED: ENDROOT
DOCKED: BRANCH  22  30
DOCKED: ATOM     30  CAD HEM A1501      54.102  82.958  13.055 -0.40 +0.04    +0.039 C 
DOCKED: BRANCH  30  31
DOCKED: ATOM     31  CBD HEM A1501      52.605  83.257  13.121 -0.52 +0.11    +0.102 C 
DOCKED: BRANCH  31  32
DOCKED: ATOM     32  CGD HEM A1501      52.283  84.721  12.889 -0.43 +0.28    +0.186 C 
DOCKED: ATOM     33  O1D HEM A1501      53.140  85.297  12.183 -0.59 -1.48    -0.647 OA
DOCKED: ATOM     34  O2D HEM A1501      51.193  85.288  13.344 -0.70 -0.96    -0.647 OA
DOCKED: ENDBRANCH  31  32
DOCKED: ENDBRANCH  30  31
DOCKED: ENDBRANCH  22  30
DOCKED: BRANCH   6  35
DOCKED: ATOM     35  CAA HEM A1501      53.807  82.224   7.441 -0.43 +0.06    +0.039 C 
DOCKED: BRANCH  35  36
DOCKED: ATOM     36  CBA HEM A1501      52.354  82.449   7.069 -0.56 +0.16    +0.102 C 
DOCKED: BRANCH  36  37
DOCKED: ATOM     37  CGA HEM A1501      52.114  83.668   6.222 -0.63 +0.35    +0.186 C 
DOCKED: ATOM     38  O1A HEM A1501      52.921  84.622   6.309 -1.14 -1.68    -0.647 OA
DOCKED: ATOM     39  O2A HEM A1501      51.146  83.660   5.433 -1.06 -1.31    -0.647 OA
DOCKED: ENDBRANCH  36  37
DOCKED: ENDBRANCH  35  36
DOCKED: ENDBRANCH   6  35
DOCKED: BRANCH  17  40
DOCKED: ATOM     40  CAC HEM A1501      56.084  75.723  15.938 -0.55 +0.00    +0.001 C 
DOCKED: ATOM     41  CBC HEM A1501      55.191  75.907  16.923 -0.64 +0.00    +0.000 C 
DOCKED: ENDBRANCH  17  40
DOCKED: BRANCH  12  42
DOCKED: ATOM     42  CAB HEM A1501      55.325  72.602   8.767 -0.54 +0.00    +0.001 C 
DOCKED: ATOM     43  CBB HEM A1501      55.599  71.728   7.819 -0.54 +0.00    +0.000 C 
DOCKED: ENDBRANCH  12  42
DOCKED: TORSDOF 8
DOCKED: TER
DOCKED: ENDMDL
________________________________________________________________________________


	BEGINNING GENETIC ALGORITHM DOCKING 8 of 100
Run: 8 Seed: 1399236786 415591426 [ Run 8 of 100 GA/GALS ]
Beginning LAMARCKIAN GENETIC ALGORITHM (LGA), with a maximum of 2500000 energy evaluations.

Final-Value: -22.955


	FINAL GENETIC ALGORITHM DOCKED STATE
	_______________________________________________


Detailed state:  trans 54.950 78.743 10.406 quatxyzw 0.152946 -0.968814 0.194939 -0.002259 center 54.495 78.699 10.493 ntor 8 179.3116 158.6181 -148.7507 119.1687 25.8445 10.0935 -134.7489 -175.1129
State:	 54.950  78.743  10.406   0.153 -0.969  0.195 -179.741    179.31  158.62 -148.75  119.17   25.84   10.09 -134.75 -175.11

DOCKED: MODEL        8
DOCKED: USER    Run = 8
DOCKED: USER    DPF = C:/Users/georg/Desktop/Dock/executables_autodock_tools/receptor.dpf
DOCKED: USER  
DOCKED: USER    Estimated Free Energy of Binding    =  -20.19 kcal/mol  [=(1)+(2)+(3)-(4)]
DOCKED: USER    Estimated Inhibition Constant, Ki   =    1.60 fM (femtomolar)  [Temperature = 298.15 K]
DOCKED: USER    
DOCKED: USER    (1) Final Intermolecular Energy     =  -22.57 kcal/mol
DOCKED: USER        vdW + Hbond + desolv Energy     =  -18.12 kcal/mol
DOCKED: USER        Electrostatic Energy            =   -4.45 kcal/mol
DOCKED: USER    (2) Final Total Internal Energy     =   -0.38 kcal/mol
DOCKED: USER    (3) Torsional Free Energy           =   +2.39 kcal/mol
DOCKED: USER    (4) Unbound System's Energy  [=(2)] =   -0.38 kcal/mol
DOCKED: USER    
DOCKED: USER    
DOCKED: USER    NEWDPF move ligand.pdbqt
DOCKED: USER    NEWDPF about 54.495000 78.699000 10.493000
DOCKED: USER    NEWDPF tran0 54.949931 78.743295 10.406340
DOCKED: USER    NEWDPF quaternion0 0.152946 -0.968814 0.194939 -0.002259
DOCKED: USER    NEWDPF axisangle0 0.152947 -0.968817 0.194939 -179.741087
DOCKED: USER    NEWDPF quat0 0.152947 -0.968817 0.194939 -179.741087
DOCKED: USER    NEWDPF dihe0 179.31 158.62 -148.75 119.17 25.84 10.09 -134.75 -175.11 
DOCKED: USER  keepresnum = 1 
DOCKED: USER  
DOCKED: REMARK  8 active torsions:
DOCKED: REMARK  status: ('A' for Active; 'I' for Inactive)
DOCKED: REMARK    1  A    between atoms: C2A_3624  and  CAA_3628 
DOCKED: REMARK    2  A    between atoms: CAA_3628  and  CBA_3629 
DOCKED: REMARK    3  A    between atoms: CBA_3629  and  CGA_3630 
DOCKED: REMARK    4  A    between atoms: C3B_3635  and  CAB_3638 
DOCKED: REMARK    5  A    between atoms: C3C_3642  and  CAC_3645 
DOCKED: REMARK    6  A    between atoms: C3D_3649  and  CAD_3652 
DOCKED: REMARK    7  A    between atoms: CAD_3652  and  CBD_3653 
DOCKED: REMARK    8  A    between atoms: CBD_3653  and  CGD_3654 
DOCKED: USER                              x       y       z     vdW  Elec       q    Type
DOCKED: USER                           _______ _______ _______ _____ _____    ______ ____
DOCKED: ROOT
DOCKED: ATOM      1  CHA HEM A1501      54.298  80.965   9.904 -0.27 +0.04    +0.038 A 
DOCKED: ATOM      2  CHB HEM A1501      54.488  76.892   7.350 -0.41 +0.03    +0.038 A 
DOCKED: ATOM      3  CHC HEM A1501      55.287  74.371  11.385 -0.39 +0.01    +0.038 A 
DOCKED: ATOM      4  CHD HEM A1501      55.163  78.457  13.935 -0.37 +0.02    +0.038 A 
DOCKED: ATOM      5  C1A HEM A1501      54.306  80.075   8.834 -0.27 +0.08    +0.079 A 
DOCKED: ATOM      6  C2A HEM A1501      54.143  80.404   7.415 -0.35 -0.01    -0.006 A 
DOCKED: ATOM      7  C3A HEM A1501      54.196  79.266   6.738 -0.38 -0.01    -0.007 A 
DOCKED: ATOM      8  C4A HEM A1501      54.401  78.226   7.699 -0.34 +0.06    +0.079 A 
DOCKED: ATOM      9  CMA HEM A1501      54.091  79.083   5.255 -0.47 +0.03    +0.032 C 
DOCKED: ATOM     10  C1B HEM A1501      54.692  75.836   8.218 -0.37 +0.04    +0.079 A 
DOCKED: ATOM     11  C2B HEM A1501      54.757  74.440   7.801 -0.47 -0.00    -0.003 A 
DOCKED: ATOM     12  C3B HEM A1501      54.966  73.734   8.942 -0.46 +0.01    +0.015 A 
DOCKED: ATOM     13  C4B HEM A1501      55.053  74.696  10.038 -0.37 +0.03    +0.083 A 
DOCKED: ATOM     14  CMB HEM A1501      54.606  73.959   6.384 -0.57 +0.02    +0.033 C 
DOCKED: ATOM     15  C1C HEM A1501      55.366  75.217  12.458 -0.34 +0.03    +0.079 A 
DOCKED: ATOM     16  C2C HEM A1501      55.692  74.828  13.802 -0.40 -0.00    -0.003 A 
DOCKED: ATOM     17  C3C HEM A1501      55.680  75.968  14.540 -0.38 +0.01    +0.015 A 
DOCKED: ATOM     18  C4C HEM A1501      55.330  77.066  13.618 -0.31 +0.04    +0.083 A 
DOCKED: ATOM     19  CMC HEM A1501      55.978  73.399  14.217 -0.55 +0.01    +0.033 C 
DOCKED: ATOM     20  C1D HEM A1501      54.854  79.533  13.067 -0.29 +0.05    +0.079 A 
DOCKED: ATOM     21  C2D HEM A1501      54.711  80.899  13.469 -0.34 -0.00    -0.007 A 
DOCKED: ATOM     22  C3D HEM A1501      54.466  81.609  12.338 -0.30 -0.01    -0.006 A 
DOCKED: ATOM     23  C4D HEM A1501      54.466  80.669  11.234 -0.21 +0.07    +0.079 A 
DOCKED: ATOM     24  CMD HEM A1501      54.814  81.430  14.844 -0.45 +0.02    +0.032 C 
DOCKED: ATOM     25  NA  HEM A1501      54.494  78.724   8.965 -0.19 -0.19    -0.246 N 
DOCKED: ATOM     26  NB  HEM A1501      54.861  75.950   9.577 -0.13 -0.12    -0.246 N 
DOCKED: ATOM     27  NC  HEM A1501      55.182  76.559  12.393 -0.11 -0.11    -0.246 N 
DOCKED: ATOM     28  ND  HEM A1501      54.707  79.420  11.712 -0.10 -0.18    -0.246 N 
DOCKED: ATOM     29 FE   HEM A1501      54.822  77.670  10.683 -0.07 +0.00    +0.000 Fe
DOCKED: ENDROOT
DOCKED: BRANCH  22  30
DOCKED: ATOM     30  CAD HEM A1501      54.250  83.075  12.309 -0.37 +0.05    +0.039 C 
DOCKED: BRANCH  30  31
DOCKED: ATOM     31  CBD HEM A1501      53.204  83.518  13.332 -0.47 +0.11    +0.102 C 
DOCKED: BRANCH  31  32
DOCKED: ATOM     32  CGD HEM A1501      52.475  84.784  12.922 -0.42 +0.29    +0.186 C 
DOCKED: ATOM     33  O1D HEM A1501      52.941  85.291  11.878 -0.43 -1.51    -0.647 OA
DOCKED: ATOM     34  O2D HEM A1501      51.440  85.250  13.577 -0.58 -0.95    -0.647 OA
DOCKED: ENDBRANCH  31  32
DOCKED: ENDBRANCH  30  31
DOCKED: ENDBRANCH  22  30
DOCKED: BRANCH   6  35
DOCKED: ATOM     35  CAA HEM A1501      53.957  81.749   6.805 -0.43 +0.05    +0.039 C 
DOCKED: BRANCH  35  36
DOCKED: ATOM     36  CBA HEM A1501      52.542  82.260   6.995 -0.55 +0.15    +0.102 C 
DOCKED: BRANCH  36  37
DOCKED: ATOM     37  CGA HEM A1501      52.247  83.549   6.278 -0.62 +0.35    +0.186 C 
DOCKED: ATOM     38  O1A HEM A1501      52.931  84.558   6.565 -1.18 -1.72    -0.647 OA
DOCKED: ATOM     39  O2A HEM A1501      51.364  83.548   5.395 -1.06 -1.23    -0.647 OA
DOCKED: ENDBRANCH  36  37
DOCKED: ENDBRANCH  35  36
DOCKED: ENDBRANCH   6  35
DOCKED: BRANCH  17  40
DOCKED: ATOM     40  CAC HEM A1501      55.945  76.126  15.975 -0.55 +0.00    +0.001 C 
DOCKED: ATOM     41  CBC HEM A1501      55.253  75.579  16.985 -0.64 +0.00    +0.000 C 
DOCKED: ENDBRANCH  17  40
DOCKED: BRANCH  12  42
DOCKED: ATOM     42  CAB HEM A1501      55.108  72.278   9.176 -0.57 +0.00    +0.001 C 
DOCKED: ATOM     43  CBB HEM A1501      55.979  71.611   9.906 -0.57 +0.00    +0.000 C 
DOCKED: ENDBRANCH  12  42
DOCKED: TORSDOF 8
DOCKED: TER
DOCKED: ENDMDL
________________________________________________________________________________


	BEGINNING GENETIC ALGORITHM DOCKING 9 of 100
Run: 9 Seed: 322508790 230070609 [ Run 9 of 100 GA/GALS ]
Beginning LAMARCKIAN GENETIC ALGORITHM (LGA), with a maximum of 2500000 energy evaluations.

Final-Value: -23.026


	FINAL GENETIC ALGORITHM DOCKED STATE
	_______________________________________________


Detailed state:  trans 54.893 78.783 10.317 quatxyzw -0.181187 0.965996 -0.182955 -0.023445 center 54.495 78.699 10.493 ntor 8 179.2131 -93.7126 -174.2028 114.3208 -8.6954 13.7198 -145.2743 -169.0210
State:	 54.893  78.783  10.317  -0.181  0.966 -0.183 -177.313    179.21  -93.71 -174.20  114.32   -8.70   13.72 -145.27 -169.02

DOCKED: MODEL        9
DOCKED: USER    Run = 9
DOCKED: USER    DPF = C:/Users/georg/Desktop/Dock/executables_autodock_tools/receptor.dpf
DOCKED: USER  
DOCKED: USER    Estimated Free Energy of Binding    =  -20.09 kcal/mol  [=(1)+(2)+(3)-(4)]
DOCKED: USER    Estimated Inhibition Constant, Ki   =    1.87 fM (femtomolar)  [Temperature = 298.15 K]
DOCKED: USER    
DOCKED: USER    (1) Final Intermolecular Energy     =  -22.48 kcal/mol
DOCKED: USER        vdW + Hbond + desolv Energy     =  -18.28 kcal/mol
DOCKED: USER        Electrostatic Energy            =   -4.20 kcal/mol
DOCKED: USER    (2) Final Total Internal Energy     =   -0.55 kcal/mol
DOCKED: USER    (3) Torsional Free Energy           =   +2.39 kcal/mol
DOCKED: USER    (4) Unbound System's Energy  [=(2)] =   -0.55 kcal/mol
DOCKED: USER    
DOCKED: USER    
DOCKED: USER    NEWDPF move ligand.pdbqt
DOCKED: USER    NEWDPF about 54.495000 78.699000 10.493000
DOCKED: USER    NEWDPF tran0 54.893380 78.783368 10.316734
DOCKED: USER    NEWDPF quaternion0 -0.181187 0.965996 -0.182955 -0.023445
DOCKED: USER    NEWDPF axisangle0 -0.181237 0.966262 -0.183006 -177.313148
DOCKED: USER    NEWDPF quat0 -0.181237 0.966262 -0.183006 -177.313148
DOCKED: USER    NEWDPF dihe0 179.21 -93.71 -174.20 114.32 -8.70 13.72 -145.27 -169.02 
DOCKED: USER  keepresnum = 1 
DOCKED: USER  
DOCKED: REMARK  8 active torsions:
DOCKED: REMARK  status: ('A' for Active; 'I' for Inactive)
DOCKED: REMARK    1  A    between atoms: C2A_3624  and  CAA_3628 
DOCKED: REMARK    2  A    between atoms: CAA_3628  and  CBA_3629 
DOCKED: REMARK    3  A    between atoms: CBA_3629  and  CGA_3630 
DOCKED: REMARK    4  A    between atoms: C3B_3635  and  CAB_3638 
DOCKED: REMARK    5  A    between atoms: C3C_3642  and  CAC_3645 
DOCKED: REMARK    6  A    between atoms: C3D_3649  and  CAD_3652 
DOCKED: REMARK    7  A    between atoms: CAD_3652  and  CBD_3653 
DOCKED: REMARK    8  A    between atoms: CBD_3653  and  CGD_3654 
DOCKED: USER                              x       y       z     vdW  Elec       q    Type
DOCKED: USER                           _______ _______ _______ _____ _____    ______ ____
DOCKED: ROOT
DOCKED: ATOM      1  CHA HEM A1501      54.114  80.972   9.855 -0.28 +0.04    +0.038 A 
DOCKED: ATOM      2  CHB HEM A1501      54.659  77.003   7.193 -0.39 +0.03    +0.038 A 
DOCKED: ATOM      3  CHC HEM A1501      55.485  74.413  11.180 -0.41 +0.01    +0.038 A 
DOCKED: ATOM      4  CHD HEM A1501      55.005  78.401  13.841 -0.38 +0.02    +0.038 A 
DOCKED: ATOM      5  C1A HEM A1501      54.217  80.119   8.762 -0.28 +0.08    +0.079 A 
DOCKED: ATOM      6  C2A HEM A1501      54.081  80.481   7.347 -0.35 -0.01    -0.006 A 
DOCKED: ATOM      7  C3A HEM A1501      54.232  79.371   6.640 -0.38 -0.01    -0.007 A 
DOCKED: ATOM      8  C4A HEM A1501      54.472  78.316   7.578 -0.33 +0.06    +0.079 A 
DOCKED: ATOM      9  CMA HEM A1501      54.190  79.228   5.149 -0.50 +0.03    +0.032 C 
DOCKED: ATOM     10  C1B HEM A1501      54.903  75.935   8.037 -0.36 +0.04    +0.079 A 
DOCKED: ATOM     11  C2B HEM A1501      55.074  74.560   7.583 -0.47 -0.00    -0.003 A 
DOCKED: ATOM     12  C3B HEM A1501      55.290  73.834   8.710 -0.44 +0.01    +0.015 A 
DOCKED: ATOM     13  C4B HEM A1501      55.276  74.765   9.835 -0.37 +0.03    +0.083 A 
DOCKED: ATOM     14  CMB HEM A1501      55.003  74.115   6.148 -0.58 +0.02    +0.033 C 
DOCKED: ATOM     15  C1C HEM A1501      55.471  75.229  12.279 -0.34 +0.03    +0.079 A 
DOCKED: ATOM     16  C2C HEM A1501      55.776  74.821  13.622 -0.42 -0.00    -0.003 A 
DOCKED: ATOM     17  C3C HEM A1501      55.663  75.934  14.392 -0.38 +0.01    +0.015 A 
DOCKED: ATOM     18  C4C HEM A1501      55.273  77.035  13.490 -0.30 +0.04    +0.083 A 
DOCKED: ATOM     19  CMC HEM A1501      56.141  73.401  14.006 -0.54 +0.01    +0.033 C 
DOCKED: ATOM     20  C1D HEM A1501      54.654  79.481  12.993 -0.28 +0.05    +0.079 A 
DOCKED: ATOM     21  C2D HEM A1501      54.408  80.822  13.430 -0.38 -0.00    -0.007 A 
DOCKED: ATOM     22  C3D HEM A1501      54.156  81.550  12.312 -0.34 -0.01    -0.006 A 
DOCKED: ATOM     23  C4D HEM A1501      54.256  80.647  11.182 -0.17 +0.07    +0.079 A 
DOCKED: ATOM     24  CMD HEM A1501      54.429  81.315  14.822 -0.47 +0.02    +0.032 C 
DOCKED: ATOM     25  NA  HEM A1501      54.489  78.779   8.860 -0.20 -0.20    -0.246 N 
DOCKED: ATOM     26  NB  HEM A1501      55.017  76.018   9.405 -0.18 -0.12    -0.246 N 
DOCKED: ATOM     27  NC  HEM A1501      55.202  76.558  12.246 -0.09 -0.11    -0.246 N 
DOCKED: ATOM     28  ND  HEM A1501      54.562  79.401  11.632 -0.06 -0.18    -0.246 N 
DOCKED: ATOM     29 FE   HEM A1501      54.827  77.695  10.557 -0.07 +0.00    +0.000 Fe
DOCKED: ENDROOT
DOCKED: BRANCH  22  30
DOCKED: ATOM     30  CAD HEM A1501      53.845  82.999  12.318 -0.42 +0.05    +0.039 C 
DOCKED: BRANCH  30  31
DOCKED: ATOM     31  CBD HEM A1501      52.576  83.307  13.113 -0.52 +0.11    +0.102 C 
DOCKED: BRANCH  31  32
DOCKED: ATOM     32  CGD HEM A1501      52.323  84.795  13.270 -0.47 +0.27    +0.186 C 
DOCKED: ATOM     33  O1D HEM A1501      53.380  85.461  13.308 -0.47 -1.20    -0.647 OA
DOCKED: ATOM     34  O2D HEM A1501      51.119  85.309  13.309 -0.72 -0.96    -0.647 OA
DOCKED: ENDBRANCH  31  32
DOCKED: ENDBRANCH  30  31
DOCKED: ENDBRANCH  22  30
DOCKED: BRANCH   6  35
DOCKED: ATOM     35  CAA HEM A1501      53.827  81.830   6.771 -0.45 +0.05    +0.039 C 
DOCKED: BRANCH  35  36
DOCKED: ATOM     36  CBA HEM A1501      52.415  82.304   7.054 -0.56 +0.16    +0.102 C 
DOCKED: BRANCH  36  37
DOCKED: ATOM     37  CGA HEM A1501      52.019  83.549   6.309 -0.60 +0.35    +0.186 C 
DOCKED: ATOM     38  O1A HEM A1501      52.629  84.613   6.563 -1.07 -1.68    -0.647 OA
DOCKED: ATOM     39  O2A HEM A1501      51.131  83.460   5.436 -1.05 -1.30    -0.647 OA
DOCKED: ENDBRANCH  36  37
DOCKED: ENDBRANCH  35  36
DOCKED: ENDBRANCH   6  35
DOCKED: BRANCH  17  40
DOCKED: ATOM     40  CAC HEM A1501      55.869  76.064  15.840 -0.54 +0.00    +0.001 C 
DOCKED: ATOM     41  CBC HEM A1501      55.179  75.443  16.808 -0.60 +0.00    +0.000 C 
DOCKED: ENDBRANCH  17  40
DOCKED: BRANCH  12  42
DOCKED: ATOM     42  CAB HEM A1501      55.520  72.384   8.906 -0.54 +0.00    +0.001 C 
DOCKED: ATOM     43  CBB HEM A1501      54.811  71.488   9.563 -0.53 +0.00    +0.000 C 
DOCKED: ENDBRANCH  12  42
DOCKED: TORSDOF 8
DOCKED: TER
DOCKED: ENDMDL
________________________________________________________________________________


	BEGINNING GENETIC ALGORITHM DOCKING 10 of 100
Run: 10 Seed: 1021534993 1914214663 [ Run 10 of 100 GA/GALS ]
Beginning LAMARCKIAN GENETIC ALGORITHM (LGA), with a maximum of 2500000 energy evaluations.

Final-Value: -23.179


	FINAL GENETIC ALGORITHM DOCKED STATE
	_______________________________________________


Detailed state:  trans 54.330 78.714 10.286 quatxyzw 0.023028 0.017087 -0.015194 0.999473 center 54.495 78.699 10.493 ntor 8 1.9477 -29.4157 155.9222 144.2694 5.5548 -4.9191 28.5240 27.2751
State:	 54.330  78.714  10.286   0.710  0.527 -0.468  3.719      1.95  -29.42  155.92  144.27    5.55   -4.92   28.52   27.28

DOCKED: MODEL       10
DOCKED: USER    Run = 10
DOCKED: USER    DPF = C:/Users/georg/Desktop/Dock/executables_autodock_tools/receptor.dpf
DOCKED: USER  
DOCKED: USER    Estimated Free Energy of Binding    =  -20.28 kcal/mol  [=(1)+(2)+(3)-(4)]
DOCKED: USER    Estimated Inhibition Constant, Ki   =    1.36 fM (femtomolar)  [Temperature = 298.15 K]
DOCKED: USER    
DOCKED: USER    (1) Final Intermolecular Energy     =  -22.67 kcal/mol
DOCKED: USER        vdW + Hbond + desolv Energy     =  -18.31 kcal/mol
DOCKED: USER        Electrostatic Energy            =   -4.36 kcal/mol
DOCKED: USER    (2) Final Total Internal Energy     =   -0.51 kcal/mol
DOCKED: USER    (3) Torsional Free Energy           =   +2.39 kcal/mol
DOCKED: USER    (4) Unbound System's Energy  [=(2)] =   -0.51 kcal/mol
DOCKED: USER    
DOCKED: USER    
DOCKED: USER    NEWDPF move ligand.pdbqt
DOCKED: USER    NEWDPF about 54.495000 78.699000 10.493000
DOCKED: USER    NEWDPF tran0 54.330032 78.714329 10.285643
DOCKED: USER    NEWDPF quaternion0 0.023028 0.017087 -0.015194 0.999473
DOCKED: USER    NEWDPF axisangle0 0.709610 0.526536 -0.468202 3.719255
DOCKED: USER    NEWDPF quat0 0.709610 0.526536 -0.468202 3.719255
DOCKED: USER    NEWDPF dihe0 1.95 -29.42 155.92 144.27 5.55 -4.92 28.52 27.28 
DOCKED: USER  keepresnum = 1 
DOCKED: USER  
DOCKED: REMARK  8 active torsions:
DOCKED: REMARK  status: ('A' for Active; 'I' for Inactive)
DOCKED: REMARK    1  A    between atoms: C2A_3624  and  CAA_3628 
DOCKED: REMARK    2  A    between atoms: CAA_3628  and  CBA_3629 
DOCKED: REMARK    3  A    between atoms: CBA_3629  and  CGA_3630 
DOCKED: REMARK    4  A    between atoms: C3B_3635  and  CAB_3638 
DOCKED: REMARK    5  A    between atoms: C3C_3642  and  CAC_3645 
DOCKED: REMARK    6  A    between atoms: C3D_3649  and  CAD_3652 
DOCKED: REMARK    7  A    between atoms: CAD_3652  and  CBD_3653 
DOCKED: REMARK    8  A    between atoms: CBD_3653  and  CGD_3654 
DOCKED: USER                              x       y       z     vdW  Elec       q    Type
DOCKED: USER                           _______ _______ _______ _____ _____    ______ ____
DOCKED: ROOT
DOCKED: ATOM      1  CHA HEM A1501      54.208  81.022   9.764 -0.28 +0.04    +0.038 A 
DOCKED: ATOM      2  CHB HEM A1501      55.009  78.565  13.821 -0.37 +0.02    +0.038 A 
DOCKED: ATOM      3  CHC HEM A1501      55.463  74.483  11.288 -0.40 +0.01    +0.038 A 
DOCKED: ATOM      4  CHD HEM A1501      54.595  76.932   7.231 -0.40 +0.03    +0.038 A 
DOCKED: ATOM      5  C1A HEM A1501      54.360  80.709  11.110 -0.20 +0.07    +0.079 A 
DOCKED: ATOM      6  C2A HEM A1501      54.260  81.633  12.245 -0.32 -0.01    -0.006 A 
DOCKED: ATOM      7  C3A HEM A1501      54.488  80.931  13.345 -0.36 -0.00    -0.007 A 
DOCKED: ATOM      8  C4A HEM A1501      54.718  79.580  12.931 -0.28 +0.05    +0.079 A 
DOCKED: ATOM      9  CMA HEM A1501      54.485  81.427  14.759 -0.47 +0.02    +0.032 C 
DOCKED: ATOM     10  C1B HEM A1501      55.234  77.239  13.498 -0.31 +0.03    +0.079 A 
DOCKED: ATOM     11  C2B HEM A1501      55.558  76.207  14.474 -0.39 -0.00    -0.003 A 
DOCKED: ATOM     12  C3B HEM A1501      55.700  75.064  13.754 -0.39 +0.01    +0.015 A 
DOCKED: ATOM     13  C4B HEM A1501      55.439  75.397  12.357 -0.32 +0.03    +0.083 A 
DOCKED: ATOM     14  CMB HEM A1501      55.697  76.437  15.954 -0.53 +0.01    +0.033 C 
DOCKED: ATOM     15  C1C HEM A1501      55.243  74.730   9.960 -0.38 +0.03    +0.079 A 
DOCKED: ATOM     16  C2C HEM A1501      55.199  73.734   8.925 -0.47 -0.00    -0.003 A 
DOCKED: ATOM     17  C3C HEM A1501      54.938  74.399   7.770 -0.46 +0.01    +0.015 A 
DOCKED: ATOM     18  C4C HEM A1501      54.832  75.829   8.119 -0.37 +0.05    +0.083 A 
DOCKED: ATOM     19  CMC HEM A1501      55.413  72.255   9.174 -0.53 +0.01    +0.033 C 
DOCKED: ATOM     20  C1D HEM A1501      54.464  78.308   7.542 -0.33 +0.06    +0.079 A 
DOCKED: ATOM     21  C2D HEM A1501      54.221  79.347   6.588 -0.38 -0.01    -0.007 A 
DOCKED: ATOM     22  C3D HEM A1501      54.112  80.500   7.296 -0.35 -0.01    -0.006 A 
DOCKED: ATOM     23  C4D HEM A1501      54.283  80.162   8.696 -0.27 +0.08    +0.079 A 
DOCKED: ATOM     24  CMD HEM A1501      54.108  79.192   5.124 -0.49 +0.03    +0.032 C 
DOCKED: ATOM     25  NA  HEM A1501      54.612  79.446  11.578 -0.08 -0.18    -0.246 N 
DOCKED: ATOM     26  NB  HEM A1501      55.185  76.716  12.228 -0.06 -0.11    -0.246 N 
DOCKED: ATOM     27  NC  HEM A1501      54.996  75.956   9.437 -0.18 -0.12    -0.246 N 
DOCKED: ATOM     28  ND  HEM A1501      54.491  78.823   8.808 -0.20 -0.20    -0.246 N 
DOCKED: ATOM     29 FE   HEM A1501      54.811  77.729  10.492 -0.07 +0.00    +0.000 Fe
DOCKED: ENDROOT
DOCKED: BRANCH  22  30
DOCKED: ATOM     30  CAD HEM A1501      53.862  81.828   6.686 -0.45 +0.05    +0.039 C 
DOCKED: BRANCH  30  31
DOCKED: ATOM     31  CBD HEM A1501      52.489  82.382   7.066 -0.56 +0.16    +0.102 C 
DOCKED: BRANCH  31  32
DOCKED: ATOM     32  CGD HEM A1501      52.132  83.649   6.312 -0.62 +0.36    +0.186 C 
DOCKED: ATOM     33  O1D HEM A1501      52.936  84.581   6.531 -1.18 -1.73    -0.647 OA
DOCKED: ATOM     34  O2D HEM A1501      51.117  83.721   5.488 -1.03 -1.33    -0.647 OA
DOCKED: ENDBRANCH  31  32
DOCKED: ENDBRANCH  30  31
DOCKED: ENDBRANCH  22  30
DOCKED: BRANCH   6  35
DOCKED: ATOM     35  CAA HEM A1501      53.957  83.090  12.212 -0.40 +0.05    +0.039 C 
DOCKED: BRANCH  35  36
DOCKED: ATOM     36  CBA HEM A1501      52.785  83.438  13.108 -0.52 +0.11    +0.102 C 
DOCKED: BRANCH  36  37
DOCKED: ATOM     37  CGA HEM A1501      52.558  84.915  13.286 -0.43 +0.28    +0.186 C 
DOCKED: ATOM     38  O1A HEM A1501      53.557  85.670  13.312 -0.39 -1.27    -0.647 OA
DOCKED: ATOM     39  O2A HEM A1501      51.383  85.331  13.352 -0.64 -0.99    -0.647 OA
DOCKED: ENDBRANCH  36  37
DOCKED: ENDBRANCH  35  36
DOCKED: ENDBRANCH   6  35
DOCKED: BRANCH  17  40
DOCKED: ATOM     40  CAC HEM A1501      54.793  73.850   6.417 -0.60 +0.00    +0.001 C 
DOCKED: ATOM     41  CBC HEM A1501      53.718  73.952   5.619 -0.66 +0.00    +0.000 C 
DOCKED: ENDBRANCH  17  40
DOCKED: BRANCH  12  42
DOCKED: ATOM     42  CAB HEM A1501      56.040  73.684  14.173 -0.56 +0.00    +0.001 C 
DOCKED: ATOM     43  CBB HEM A1501      57.053  73.232  14.883 -0.63 +0.00    +0.000 C 
DOCKED: ENDBRANCH  12  42
DOCKED: TORSDOF 8
DOCKED: TER
DOCKED: ENDMDL
________________________________________________________________________________


	BEGINNING GENETIC ALGORITHM DOCKING 11 of 100
Run: 11 Seed: 861157138 100089997 [ Run 11 of 100 GA/GALS ]
Beginning LAMARCKIAN GENETIC ALGORITHM (LGA), with a maximum of 2500000 energy evaluations.

Final-Value: -23.007


	FINAL GENETIC ALGORITHM DOCKED STATE
	_______________________________________________


Detailed state:  trans 54.337 79.072 10.909 quatxyzw 0.000744 -0.018201 0.046795 -0.998738 center 54.495 78.699 10.493 ntor 8 0.2340 57.1366 35.2839 -166.5067 2.5681 19.8841 -29.3128 13.6542
State:	 54.337  79.072  10.909   0.015 -0.362  0.932 -5.757      0.23   57.14   35.28 -166.51    2.57   19.88  -29.31   13.65

DOCKED: MODEL       11
DOCKED: USER    Run = 11
DOCKED: USER    DPF = C:/Users/georg/Desktop/Dock/executables_autodock_tools/receptor.dpf
DOCKED: USER  
DOCKED: USER    Estimated Free Energy of Binding    =  -20.17 kcal/mol  [=(1)+(2)+(3)-(4)]
DOCKED: USER    Estimated Inhibition Constant, Ki   =    1.65 fM (femtomolar)  [Temperature = 298.15 K]
DOCKED: USER    
DOCKED: USER    (1) Final Intermolecular Energy     =  -22.55 kcal/mol
DOCKED: USER        vdW + Hbond + desolv Energy     =  -18.33 kcal/mol
DOCKED: USER        Electrostatic Energy            =   -4.23 kcal/mol
DOCKED: USER    (2) Final Total Internal Energy     =   -0.45 kcal/mol
DOCKED: USER    (3) Torsional Free Energy           =   +2.39 kcal/mol
DOCKED: USER    (4) Unbound System's Energy  [=(2)] =   -0.45 kcal/mol
DOCKED: USER    
DOCKED: USER    
DOCKED: USER    NEWDPF move ligand.pdbqt
DOCKED: USER    NEWDPF about 54.495000 78.699000 10.493000
DOCKED: USER    NEWDPF tran0 54.337302 79.071585 10.908608
DOCKED: USER    NEWDPF quaternion0 0.000744 -0.018201 0.046795 -0.998738
DOCKED: USER    NEWDPF axisangle0 0.014824 -0.362457 0.931883 -5.756639
DOCKED: USER    NEWDPF quat0 0.014824 -0.362457 0.931883 -5.756639
DOCKED: USER    NEWDPF dihe0 0.23 57.14 35.28 -166.51 2.57 19.88 -29.31 13.65 
DOCKED: USER  keepresnum = 1 
DOCKED: USER  
DOCKED: REMARK  8 active torsions:
DOCKED: REMARK  status: ('A' for Active; 'I' for Inactive)
DOCKED: REMARK    1  A    between atoms: C2A_3624  and  CAA_3628 
DOCKED: REMARK    2  A    between atoms: CAA_3628  and  CBA_3629 
DOCKED: REMARK    3  A    between atoms: CBA_3629  and  CGA_3630 
DOCKED: REMARK    4  A    between atoms: C3B_3635  and  CAB_3638 
DOCKED: REMARK    5  A    between atoms: C3C_3642  and  CAC_3645 
DOCKED: REMARK    6  A    between atoms: C3D_3649  and  CAD_3652 
DOCKED: REMARK    7  A    between atoms: CAD_3652  and  CBD_3653 
DOCKED: REMARK    8  A    between atoms: CBD_3653  and  CGD_3654 
DOCKED: USER                              x       y       z     vdW  Elec       q    Type
DOCKED: USER                           _______ _______ _______ _____ _____    ______ ____
DOCKED: ROOT
DOCKED: ATOM      1  CHA HEM A1501      54.068  81.388  10.494 -0.29 +0.04    +0.038 A 
DOCKED: ATOM      2  CHB HEM A1501      55.030  78.802  14.434 -0.38 +0.02    +0.038 A 
DOCKED: ATOM      3  CHC HEM A1501      55.740  74.880  11.716 -0.38 +0.01    +0.038 A 
DOCKED: ATOM      4  CHD HEM A1501      54.712  77.454   7.775 -0.35 +0.03    +0.038 A 
DOCKED: ATOM      5  C1A HEM A1501      54.241  81.023  11.825 -0.25 +0.07    +0.079 A 
DOCKED: ATOM      6  C2A HEM A1501      54.084  81.886  13.001 -0.37 -0.00    -0.006 A 
DOCKED: ATOM      7  C3A HEM A1501      54.357  81.149  14.068 -0.41 -0.00    -0.007 A 
DOCKED: ATOM      8  C4A HEM A1501      54.673  79.837  13.592 -0.34 +0.05    +0.079 A 
DOCKED: ATOM      9  CMA HEM A1501      54.325  81.578  15.503 -0.43 +0.01    +0.032 C 
DOCKED: ATOM     10  C1B HEM A1501      55.339  77.510  14.050 -0.34 +0.03    +0.079 A 
DOCKED: ATOM     11  C2B HEM A1501      55.729  76.456  14.978 -0.42 -0.00    -0.003 A 
DOCKED: ATOM     12  C3B HEM A1501      55.943  75.359  14.206 -0.40 +0.01    +0.015 A 
DOCKED: ATOM     13  C4B HEM A1501      55.660  75.739  12.825 -0.32 +0.03    +0.083 A 
DOCKED: ATOM     14  CMB HEM A1501      55.855  76.626  16.468 -0.55 +0.01    +0.033 C 
DOCKED: ATOM     15  C1C HEM A1501      55.503  75.173  10.400 -0.35 +0.03    +0.079 A 
DOCKED: ATOM     16  C2C HEM A1501      55.521  74.226   9.320 -0.44 -0.00    -0.003 A 
DOCKED: ATOM     17  C3C HEM A1501      55.217  74.925   8.196 -0.43 +0.01    +0.015 A 
DOCKED: ATOM     18  C4C HEM A1501      55.020  76.328   8.611 -0.30 +0.05    +0.083 A 
DOCKED: ATOM     19  CMC HEM A1501      55.830  72.753   9.500 -0.42 +0.01    +0.033 C 
DOCKED: ATOM     20  C1D HEM A1501      54.493  78.802   8.150 -0.30 +0.06    +0.079 A 
DOCKED: ATOM     21  C2D HEM A1501      54.183  79.867   7.244 -0.35 -0.01    -0.007 A 
DOCKED: ATOM     22  C3D HEM A1501      54.001  80.977   8.005 -0.36 -0.01    -0.006 A 
DOCKED: ATOM     23  C4D HEM A1501      54.196  80.586   9.387 -0.26 +0.08    +0.079 A 
DOCKED: ATOM     24  CMD HEM A1501      54.077  79.773   5.774 -0.46 +0.03    +0.032 C 
DOCKED: ATOM     25  NA  HEM A1501      54.574  79.759  12.234 -0.15 -0.18    -0.246 N 
DOCKED: ATOM     26  NB  HEM A1501      55.321  77.044  12.757 -0.17 -0.11    -0.246 N 
DOCKED: ATOM     27  NC  HEM A1501      55.177  76.404   9.934 -0.08 -0.12    -0.246 N 
DOCKED: ATOM     28  ND  HEM A1501      54.489  79.259   9.438 -0.17 -0.20    -0.246 N 
DOCKED: ATOM     29 FE   HEM A1501      54.881  78.110  11.069 -0.07 +0.00    +0.000 Fe
DOCKED: ENDROOT
DOCKED: BRANCH  22  30
DOCKED: ATOM     30  CAD HEM A1501      53.666  82.312   7.456 -0.43 +0.06    +0.039 C 
DOCKED: BRANCH  30  31
DOCKED: ATOM     31  CBD HEM A1501      52.410  82.273   6.586 -0.58 +0.15    +0.102 C 
DOCKED: BRANCH  31  32
DOCKED: ATOM     32  CGD HEM A1501      52.107  83.604   5.923 -0.64 +0.34    +0.186 C 
DOCKED: ATOM     33  O1D HEM A1501      51.095  83.557   5.190 -1.09 -1.28    -0.647 OA
DOCKED: ATOM     34  O2D HEM A1501      52.812  84.685   6.148 -1.02 -1.64    -0.647 OA
DOCKED: ENDBRANCH  31  32
DOCKED: ENDBRANCH  30  31
DOCKED: ENDBRANCH  22  30
DOCKED: BRANCH   6  35
DOCKED: ATOM     35  CAA HEM A1501      53.688  83.320  13.035 -0.46 +0.04    +0.039 C 
DOCKED: BRANCH  35  36
DOCKED: ATOM     36  CBA HEM A1501      52.321  83.509  13.664 -0.47 +0.11    +0.102 C 
DOCKED: BRANCH  36  37
DOCKED: ATOM     37  CGA HEM A1501      51.697  84.852  13.398 -0.52 +0.26    +0.186 C 
DOCKED: ATOM     38  O1A HEM A1501      52.186  85.565  12.492 -0.30 -1.34    -0.647 OA
DOCKED: ATOM     39  O2A HEM A1501      50.691  85.179  14.060 -0.87 -0.86    -0.647 OA
DOCKED: ENDBRANCH  36  37
DOCKED: ENDBRANCH  35  36
DOCKED: ENDBRANCH   6  35
DOCKED: BRANCH  17  40
DOCKED: ATOM     40  CAC HEM A1501      55.105  74.431   6.819 -0.58 +0.00    +0.001 C 
DOCKED: ATOM     41  CBC HEM A1501      54.015  74.473   6.036 -0.64 +0.00    +0.000 C 
DOCKED: ENDBRANCH  17  40
DOCKED: BRANCH  12  42
DOCKED: ATOM     42  CAB HEM A1501      56.371  73.986  14.561 -0.57 +0.00    +0.001 C 
DOCKED: ATOM     43  CBB HEM A1501      56.126  73.266  15.637 -0.60 +0.00    +0.000 C 
DOCKED: ENDBRANCH  12  42
DOCKED: TORSDOF 8
DOCKED: TER
DOCKED: ENDMDL
________________________________________________________________________________


	BEGINNING GENETIC ALGORITHM DOCKING 12 of 100
Run: 12 Seed: 89308319 59979355 [ Run 12 of 100 GA/GALS ]
Beginning LAMARCKIAN GENETIC ALGORITHM (LGA), with a maximum of 2500000 energy evaluations.

Final-Value: -23.411


	FINAL GENETIC ALGORITHM DOCKED STATE
	_______________________________________________


Detailed state:  trans 54.950 78.772 10.617 quatxyzw 0.157829 -0.972440 0.171547 0.004637 center 54.495 78.699 10.493 ntor 8 146.0254 167.8460 -134.3201 134.7583 16.9240 14.9432 -158.1859 171.2132
State:	 54.950  78.772  10.617   0.158 -0.972  0.172 179.469    146.03  167.85 -134.32  134.76   16.92   14.94 -158.19  171.21

DOCKED: MODEL       12
DOCKED: USER    Run = 12
DOCKED: USER    DPF = C:/Users/georg/Desktop/Dock/executables_autodock_tools/receptor.dpf
DOCKED: USER  
DOCKED: USER    Estimated Free Energy of Binding    =  -20.52 kcal/mol  [=(1)+(2)+(3)-(4)]
DOCKED: USER    Estimated Inhibition Constant, Ki   =  904.68 aM (attomolar)  [Temperature = 298.15 K]
DOCKED: USER    
DOCKED: USER    (1) Final Intermolecular Energy     =  -22.91 kcal/mol
DOCKED: USER        vdW + Hbond + desolv Energy     =  -18.45 kcal/mol
DOCKED: USER        Electrostatic Energy            =   -4.46 kcal/mol
DOCKED: USER    (2) Final Total Internal Energy     =   -0.50 kcal/mol
DOCKED: USER    (3) Torsional Free Energy           =   +2.39 kcal/mol
DOCKED: USER    (4) Unbound System's Energy  [=(2)] =   -0.50 kcal/mol
DOCKED: USER    
DOCKED: USER    
DOCKED: USER    NEWDPF move ligand.pdbqt
DOCKED: USER    NEWDPF about 54.495000 78.699000 10.493000
DOCKED: USER    NEWDPF tran0 54.950086 78.772215 10.616830
DOCKED: USER    NEWDPF quaternion0 0.157829 -0.972440 0.171547 0.004637
DOCKED: USER    NEWDPF axisangle0 0.157831 -0.972451 0.171549 179.468687
DOCKED: USER    NEWDPF quat0 0.157831 -0.972451 0.171549 179.468687
DOCKED: USER    NEWDPF dihe0 146.03 167.85 -134.32 134.76 16.92 14.94 -158.19 171.21 
DOCKED: USER  keepresnum = 1 
DOCKED: USER  
DOCKED: REMARK  8 active torsions:
DOCKED: REMARK  status: ('A' for Active; 'I' for Inactive)
DOCKED: REMARK    1  A    between atoms: C2A_3624  and  CAA_3628 
DOCKED: REMARK    2  A    between atoms: CAA_3628  and  CBA_3629 
DOCKED: REMARK    3  A    between atoms: CBA_3629  and  CGA_3630 
DOCKED: REMARK    4  A    between atoms: C3B_3635  and  CAB_3638 
DOCKED: REMARK    5  A    between atoms: C3C_3642  and  CAC_3645 
DOCKED: REMARK    6  A    between atoms: C3D_3649  and  CAD_3652 
DOCKED: REMARK    7  A    between atoms: CAD_3652  and  CBD_3653 
DOCKED: REMARK    8  A    between atoms: CBD_3653  and  CGD_3654 
DOCKED: USER                              x       y       z     vdW  Elec       q    Type
DOCKED: USER                           _______ _______ _______ _____ _____    ______ ____
DOCKED: ROOT
DOCKED: ATOM      1  CHA HEM A1501      54.276  81.008  10.220 -0.26 +0.04    +0.038 A 
DOCKED: ATOM      2  CHB HEM A1501      54.521  77.068   7.472 -0.40 +0.03    +0.038 A 
DOCKED: ATOM      3  CHC HEM A1501      55.332  74.361  11.382 -0.39 +0.01    +0.038 A 
DOCKED: ATOM      4  CHD HEM A1501      55.152  78.316  14.128 -0.38 +0.02    +0.038 A 
DOCKED: ATOM      5  C1A HEM A1501      54.298  80.172   9.109 -0.26 +0.08    +0.079 A 
DOCKED: ATOM      6  C2A HEM A1501      54.137  80.569   7.706 -0.34 -0.01    -0.006 A 
DOCKED: ATOM      7  C3A HEM A1501      54.206  79.466   6.975 -0.37 -0.01    -0.007 A 
DOCKED: ATOM      8  C4A HEM A1501      54.418  78.382   7.885 -0.33 +0.06    +0.079 A 
DOCKED: ATOM      9  CMA HEM A1501      54.108  79.354   5.484 -0.48 +0.03    +0.032 C 
DOCKED: ATOM     10  C1B HEM A1501      54.733  75.972   8.288 -0.36 +0.04    +0.079 A 
DOCKED: ATOM     11  C2B HEM A1501      54.815  74.600   7.804 -0.47 -0.00    -0.003 A 
DOCKED: ATOM     12  C3B HEM A1501      55.027  73.841   8.910 -0.45 +0.01    +0.015 A 
DOCKED: ATOM     13  C4B HEM A1501      55.099  74.749  10.051 -0.37 +0.03    +0.083 A 
DOCKED: ATOM     14  CMB HEM A1501      54.675  74.187   6.364 -0.58 +0.02    +0.033 C 
DOCKED: ATOM     15  C1C HEM A1501      55.396  75.155  12.495 -0.34 +0.03    +0.079 A 
DOCKED: ATOM     16  C2C HEM A1501      55.721  74.704  13.821 -0.41 -0.00    -0.003 A 
DOCKED: ATOM     17  C3C HEM A1501      55.694  75.806  14.613 -0.38 +0.01    +0.015 A 
DOCKED: ATOM     18  C4C HEM A1501      55.335  76.944  13.745 -0.32 +0.03    +0.083 A 
DOCKED: ATOM     19  CMC HEM A1501      56.022  73.260  14.167 -0.55 +0.01    +0.033 C 
DOCKED: ATOM     20  C1D HEM A1501      54.834  79.429  13.312 -0.31 +0.05    +0.079 A 
DOCKED: ATOM     21  C2D HEM A1501      54.675  80.773  13.780 -0.38 -0.00    -0.007 A 
DOCKED: ATOM     22  C3D HEM A1501      54.427  81.534  12.684 -0.32 -0.00    -0.006 A 
DOCKED: ATOM     23  C4D HEM A1501      54.442  80.650  11.535 -0.22 +0.07    +0.079 A 
DOCKED: ATOM     24  CMD HEM A1501      54.766  81.237  15.179 -0.47 +0.01    +0.032 C 
DOCKED: ATOM     25  NA  HEM A1501      54.500  78.818   9.174 -0.17 -0.19    -0.246 N 
DOCKED: ATOM     26  NB  HEM A1501      54.895  76.022   9.652 -0.07 -0.12    -0.246 N 
DOCKED: ATOM     27  NC  HEM A1501      55.199  76.496  12.495 -0.15 -0.11    -0.246 N 
DOCKED: ATOM     28  ND  HEM A1501      54.695  79.381  11.953 -0.11 -0.17    -0.246 N 
DOCKED: ATOM     29 FE   HEM A1501      54.833  77.685  10.840 -0.07 +0.00    +0.000 Fe
DOCKED: ENDROOT
DOCKED: BRANCH  22  30
DOCKED: ATOM     30  CAD HEM A1501      54.195  82.998  12.726 -0.38 +0.04    +0.039 C 
DOCKED: BRANCH  30  31
DOCKED: ATOM     31  CBD HEM A1501      52.816  83.341  13.289 -0.51 +0.11    +0.102 C 
DOCKED: BRANCH  31  32
DOCKED: ATOM     32  CGD HEM A1501      52.364  84.745  12.933 -0.44 +0.28    +0.186 C 
DOCKED: ATOM     33  O1D HEM A1501      53.117  85.297  12.101 -0.54 -1.50    -0.647 OA
DOCKED: ATOM     34  O2D HEM A1501      51.272  85.283  13.417 -0.67 -0.96    -0.647 OA
DOCKED: ENDBRANCH  31  32
DOCKED: ENDBRANCH  30  31
DOCKED: ENDBRANCH  22  30
DOCKED: BRANCH   6  35
DOCKED: ATOM     35  CAA HEM A1501      53.938  81.940   7.162 -0.43 +0.05    +0.039 C 
DOCKED: BRANCH  35  36
DOCKED: ATOM     36  CBA HEM A1501      52.468  82.297   7.064 -0.56 +0.16    +0.102 C 
DOCKED: BRANCH  36  37
DOCKED: ATOM     37  CGA HEM A1501      52.186  83.554   6.288 -0.63 +0.35    +0.186 C 
DOCKED: ATOM     38  O1A HEM A1501      52.907  84.556   6.497 -1.18 -1.69    -0.647 OA
DOCKED: ATOM     39  O2A HEM A1501      51.275  83.532   5.435 -1.06 -1.26    -0.647 OA
DOCKED: ENDBRANCH  36  37
DOCKED: ENDBRANCH  35  36
DOCKED: ENDBRANCH   6  35
DOCKED: BRANCH  17  40
DOCKED: ATOM     40  CAC HEM A1501      55.952  75.897  16.055 -0.56 +0.00    +0.001 C 
DOCKED: ATOM     41  CBC HEM A1501      55.039  75.867  17.039 -0.63 +0.00    +0.000 C 
DOCKED: ENDBRANCH  17  40
DOCKED: BRANCH  12  42
DOCKED: ATOM     42  CAB HEM A1501      55.184  72.377   9.073 -0.57 +0.00    +0.001 C 
DOCKED: ATOM     43  CBB HEM A1501      55.950  71.686   9.893 -0.57 +0.00    +0.000 C 
DOCKED: ENDBRANCH  12  42
DOCKED: TORSDOF 8
DOCKED: TER
DOCKED: ENDMDL
________________________________________________________________________________


	BEGINNING GENETIC ALGORITHM DOCKING 13 of 100
Run: 13 Seed: 1279411022 1211910288 [ Run 13 of 100 GA/GALS ]
Beginning LAMARCKIAN GENETIC ALGORITHM (LGA), with a maximum of 2500000 energy evaluations.

Final-Value: -23.378


	FINAL GENETIC ALGORITHM DOCKED STATE
	_______________________________________________


Detailed state:  trans 54.940 79.150 10.896 quatxyzw 0.185805 -0.968475 0.163380 0.028987 center 54.495 78.699 10.493 ntor 8 157.1331 -54.9273 -136.8384 -21.7558 -18.2649 15.5451 179.9615 156.2411
State:	 54.940  79.150  10.896   0.186 -0.969  0.163 176.678    157.13  -54.93 -136.84  -21.76  -18.26   15.55  179.96  156.24

DOCKED: MODEL       13
DOCKED: USER    Run = 13
DOCKED: USER    DPF = C:/Users/georg/Desktop/Dock/executables_autodock_tools/receptor.dpf
DOCKED: USER  
DOCKED: USER    Estimated Free Energy of Binding    =  -20.39 kcal/mol  [=(1)+(2)+(3)-(4)]
DOCKED: USER    Estimated Inhibition Constant, Ki   =    1.14 fM (femtomolar)  [Temperature = 298.15 K]
DOCKED: USER    
DOCKED: USER    (1) Final Intermolecular Energy     =  -22.77 kcal/mol
DOCKED: USER        vdW + Hbond + desolv Energy     =  -18.63 kcal/mol
DOCKED: USER        Electrostatic Energy            =   -4.15 kcal/mol
DOCKED: USER    (2) Final Total Internal Energy     =   -0.60 kcal/mol
DOCKED: USER    (3) Torsional Free Energy           =   +2.39 kcal/mol
DOCKED: USER    (4) Unbound System's Energy  [=(2)] =   -0.60 kcal/mol
DOCKED: USER    
DOCKED: USER    
DOCKED: USER    NEWDPF move ligand.pdbqt
DOCKED: USER    NEWDPF about 54.495000 78.699000 10.493000
DOCKED: USER    NEWDPF tran0 54.939755 79.149549 10.896114
DOCKED: USER    NEWDPF quaternion0 0.185805 -0.968475 0.163380 0.028987
DOCKED: USER    NEWDPF axisangle0 0.185883 -0.968882 0.163449 176.677835
DOCKED: USER    NEWDPF quat0 0.185883 -0.968882 0.163449 176.677835
DOCKED: USER    NEWDPF dihe0 157.13 -54.93 -136.84 -21.76 -18.26 15.55 179.96 156.24 
DOCKED: USER  keepresnum = 1 
DOCKED: USER  
DOCKED: REMARK  8 active torsions:
DOCKED: REMARK  status: ('A' for Active; 'I' for Inactive)
DOCKED: REMARK    1  A    between atoms: C2A_3624  and  CAA_3628 
DOCKED: REMARK    2  A    between atoms: CAA_3628  and  CBA_3629 
DOCKED: REMARK    3  A    between atoms: CBA_3629  and  CGA_3630 
DOCKED: REMARK    4  A    between atoms: C3B_3635  and  CAB_3638 
DOCKED: REMARK    5  A    between atoms: C3C_3642  and  CAC_3645 
DOCKED: REMARK    6  A    between atoms: C3D_3649  and  CAD_3652 
DOCKED: REMARK    7  A    between atoms: CAD_3652  and  CBD_3653 
DOCKED: REMARK    8  A    between atoms: CBD_3653  and  CGD_3654 
DOCKED: USER                              x       y       z     vdW  Elec       q    Type
DOCKED: USER                           _______ _______ _______ _____ _____    ______ ____
DOCKED: ROOT
DOCKED: ATOM      1  CHA HEM A1501      54.137  81.347  10.522 -0.28 +0.04    +0.038 A 
DOCKED: ATOM      2  CHB HEM A1501      54.730  77.494   7.703 -0.35 +0.03    +0.038 A 
DOCKED: ATOM      3  CHC HEM A1501      55.578  74.755  11.583 -0.39 +0.01    +0.038 A 
DOCKED: ATOM      4  CHD HEM A1501      55.050  78.626  14.402 -0.39 +0.02    +0.038 A 
DOCKED: ATOM      5  C1A HEM A1501      54.251  80.539   9.395 -0.25 +0.08    +0.079 A 
DOCKED: ATOM      6  C2A HEM A1501      54.113  80.957   7.996 -0.34 -0.01    -0.006 A 
DOCKED: ATOM      7  C3A HEM A1501      54.278  79.878   7.245 -0.35 -0.01    -0.007 A 
DOCKED: ATOM      8  C4A HEM A1501      54.528  78.789   8.139 -0.30 +0.06    +0.079 A 
DOCKED: ATOM      9  CMA HEM A1501      54.239  79.795   5.750 -0.46 +0.03    +0.032 C 
DOCKED: ATOM     10  C1B HEM A1501      54.984  76.396   8.503 -0.31 +0.05    +0.079 A 
DOCKED: ATOM     11  C2B HEM A1501      55.171  75.043   7.994 -0.45 -0.00    -0.003 A 
DOCKED: ATOM     12  C3B HEM A1501      55.393  74.274   9.091 -0.44 +0.01    +0.015 A 
DOCKED: ATOM     13  C4B HEM A1501      55.367  75.158  10.253 -0.34 +0.03    +0.083 A 
DOCKED: ATOM     14  CMB HEM A1501      55.108  74.655   6.542 -0.57 +0.02    +0.033 C 
DOCKED: ATOM     15  C1C HEM A1501      55.553  75.526  12.714 -0.33 +0.03    +0.079 A 
DOCKED: ATOM     16  C2C HEM A1501      55.861  75.066  14.040 -0.41 -0.00    -0.003 A 
DOCKED: ATOM     17  C3C HEM A1501      55.735  76.146  14.854 -0.40 +0.01    +0.015 A 
DOCKED: ATOM     18  C4C HEM A1501      55.334  77.278  13.997 -0.33 +0.03    +0.083 A 
DOCKED: ATOM     19  CMC HEM A1501      56.241  73.636  14.367 -0.55 +0.01    +0.033 C 
DOCKED: ATOM     20  C1D HEM A1501      54.689  79.736  13.598 -0.34 +0.05    +0.079 A 
DOCKED: ATOM     21  C2D HEM A1501      54.427  81.055  14.089 -0.41 -0.00    -0.007 A 
DOCKED: ATOM     22  C3D HEM A1501      54.169  81.824  13.000 -0.36 -0.00    -0.006 A 
DOCKED: ATOM     23  C4D HEM A1501      54.280  80.969  11.834 -0.25 +0.07    +0.079 A 
DOCKED: ATOM     24  CMD HEM A1501      54.440  81.492  15.499 -0.47 +0.01    +0.032 C 
DOCKED: ATOM     25  NA  HEM A1501      54.538  79.200   9.439 -0.16 -0.20    -0.246 N 
DOCKED: ATOM     26  NB  HEM A1501      55.096  76.425   9.873 +0.02 -0.12    -0.246 N 
DOCKED: ATOM     27  NC  HEM A1501      55.269  76.851  12.734 -0.17 -0.11    -0.246 N 
DOCKED: ATOM     28  ND  HEM A1501      54.600  79.710  12.235 -0.15 -0.17    -0.246 N 
DOCKED: ATOM     29 FE   HEM A1501      54.885  78.052  11.092 -0.07 +0.00    +0.000 Fe
DOCKED: ENDROOT
DOCKED: BRANCH  22  30
DOCKED: ATOM     30  CAD HEM A1501      53.842  83.268  13.064 -0.44 +0.04    +0.039 C 
DOCKED: BRANCH  30  31
DOCKED: ATOM     31  CBD HEM A1501      52.333  83.513  13.055 -0.50 +0.12    +0.102 C 
DOCKED: BRANCH  31  32
DOCKED: ATOM     32  CGD HEM A1501      51.957  84.912  13.507 -0.51 +0.26    +0.186 C 
DOCKED: ATOM     33  O1D HEM A1501      52.955  85.646  13.681 -0.51 -1.14    -0.647 OA
DOCKED: ATOM     34  O2D HEM A1501      50.714  85.303  13.644 -0.97 -0.89    -0.647 OA
DOCKED: ENDBRANCH  31  32
DOCKED: ENDBRANCH  30  31
DOCKED: ENDBRANCH  22  30
DOCKED: BRANCH   6  35
DOCKED: ATOM     35  CAA HEM A1501      53.846  82.325   7.474 -0.41 +0.06    +0.039 C 
DOCKED: BRANCH  35  36
DOCKED: ATOM     36  CBA HEM A1501      52.417  82.470   6.989 -0.57 +0.16    +0.102 C 
DOCKED: BRANCH  36  37
DOCKED: ATOM     37  CGA HEM A1501      52.154  83.726   6.203 -0.64 +0.36    +0.186 C 
DOCKED: ATOM     38  O1A HEM A1501      51.156  83.756   5.446 -1.06 -1.31    -0.647 OA
DOCKED: ATOM     39  O2A HEM A1501      52.913  84.702   6.374 -1.09 -1.75    -0.647 OA
DOCKED: ENDBRANCH  36  37
DOCKED: ENDBRANCH  35  36
DOCKED: ENDBRANCH   6  35
DOCKED: BRANCH  17  40
DOCKED: ATOM     40  CAC HEM A1501      55.936  76.219  16.306 -0.58 +0.00    +0.001 C 
DOCKED: ATOM     41  CBC HEM A1501      55.044  75.907  17.258 -0.66 +0.00    +0.000 C 
DOCKED: ENDBRANCH  17  40
DOCKED: BRANCH  12  42
DOCKED: ATOM     42  CAB HEM A1501      55.639  72.820   9.229 -0.49 +0.00    +0.001 C 
DOCKED: ATOM     43  CBB HEM A1501      54.798  71.805   9.202 -0.58 +0.00    +0.000 C 
DOCKED: ENDBRANCH  12  42
DOCKED: TORSDOF 8
DOCKED: TER
DOCKED: ENDMDL
________________________________________________________________________________


	BEGINNING GENETIC ALGORITHM DOCKING 14 of 100
Run: 14 Seed: 361581475 703174009 [ Run 14 of 100 GA/GALS ]
Beginning LAMARCKIAN GENETIC ALGORITHM (LGA), with a maximum of 2500000 energy evaluations.

Final-Value: -23.286


	FINAL GENETIC ALGORITHM DOCKED STATE
	_______________________________________________


Detailed state:  trans 54.930 79.018 10.716 quatxyzw 0.189925 -0.961223 0.196912 0.034704 center 54.495 78.699 10.493 ntor 8 -176.4981 -39.9652 -140.4418 -45.0452 -26.1942 8.5382 -166.7925 175.6027
State:	 54.930  79.018  10.716   0.190 -0.962  0.197 176.022   -176.50  -39.97 -140.44  -45.05  -26.19    8.54 -166.79  175.60

DOCKED: MODEL       14
DOCKED: USER    Run = 14
DOCKED: USER    DPF = C:/Users/georg/Desktop/Dock/executables_autodock_tools/receptor.dpf
DOCKED: USER  
DOCKED: USER    Estimated Free Energy of Binding    =  -20.31 kcal/mol  [=(1)+(2)+(3)-(4)]
DOCKED: USER    Estimated Inhibition Constant, Ki   =    1.30 fM (femtomolar)  [Temperature = 298.15 K]
DOCKED: USER    
DOCKED: USER    (1) Final Intermolecular Energy     =  -22.69 kcal/mol
DOCKED: USER        vdW + Hbond + desolv Energy     =  -18.56 kcal/mol
DOCKED: USER        Electrostatic Energy            =   -4.14 kcal/mol
DOCKED: USER    (2) Final Total Internal Energy     =   -0.59 kcal/mol
DOCKED: USER    (3) Torsional Free Energy           =   +2.39 kcal/mol
DOCKED: USER    (4) Unbound System's Energy  [=(2)] =   -0.59 kcal/mol
DOCKED: USER    
DOCKED: USER    
DOCKED: USER    NEWDPF move ligand.pdbqt
DOCKED: USER    NEWDPF about 54.495000 78.699000 10.493000
DOCKED: USER    NEWDPF tran0 54.930421 79.017838 10.716012
DOCKED: USER    NEWDPF quaternion0 0.189925 -0.961223 0.196912 0.034704
DOCKED: USER    NEWDPF axisangle0 0.190040 -0.961802 0.197031 176.022363
DOCKED: USER    NEWDPF quat0 0.190040 -0.961802 0.197031 176.022363
DOCKED: USER    NEWDPF dihe0 -176.50 -39.97 -140.44 -45.05 -26.19 8.54 -166.79 175.60 
DOCKED: USER  keepresnum = 1 
DOCKED: USER  
DOCKED: REMARK  8 active torsions:
DOCKED: REMARK  status: ('A' for Active; 'I' for Inactive)
DOCKED: REMARK    1  A    between atoms: C2A_3624  and  CAA_3628 
DOCKED: REMARK    2  A    between atoms: CAA_3628  and  CBA_3629 
DOCKED: REMARK    3  A    between atoms: CBA_3629  and  CGA_3630 
DOCKED: REMARK    4  A    between atoms: C3B_3635  and  CAB_3638 
DOCKED: REMARK    5  A    between atoms: C3C_3642  and  CAC_3645 
DOCKED: REMARK    6  A    between atoms: C3D_3649  and  CAD_3652 
DOCKED: REMARK    7  A    between atoms: CAD_3652  and  CBD_3653 
DOCKED: REMARK    8  A    between atoms: CBD_3653  and  CGD_3654 
DOCKED: USER                              x       y       z     vdW  Elec       q    Type
DOCKED: USER                           _______ _______ _______ _____ _____    ______ ____
DOCKED: ROOT
DOCKED: ATOM      1  CHA HEM A1501      54.115  81.177  10.181 -0.29 +0.04    +0.038 A 
DOCKED: ATOM      2  CHB HEM A1501      54.810  77.155   7.634 -0.35 +0.03    +0.038 A 
DOCKED: ATOM      3  CHC HEM A1501      55.596  74.685  11.703 -0.39 +0.01    +0.038 A 
DOCKED: ATOM      4  CHD HEM A1501      54.965  78.726  14.250 -0.39 +0.02    +0.038 A 
DOCKED: ATOM      5  C1A HEM A1501      54.263  80.299   9.112 -0.26 +0.08    +0.079 A 
DOCKED: ATOM      6  C2A HEM A1501      54.153  80.623   7.686 -0.34 -0.01    -0.006 A 
DOCKED: ATOM      7  C3A HEM A1501      54.346  79.499   7.011 -0.35 -0.01    -0.007 A 
DOCKED: ATOM      8  C4A HEM A1501      54.586  78.474   7.980 -0.31 +0.06    +0.079 A 
DOCKED: ATOM      9  CMA HEM A1501      54.342  79.318   5.524 -0.48 +0.03    +0.032 C 
DOCKED: ATOM     10  C1B HEM A1501      55.057  76.115   8.510 -0.32 +0.04    +0.079 A 
DOCKED: ATOM     11  C2B HEM A1501      55.268  74.733   8.095 -0.45 -0.00    -0.003 A 
DOCKED: ATOM     12  C3B HEM A1501      55.473  74.040   9.245 -0.44 +0.01    +0.015 A 
DOCKED: ATOM     13  C4B HEM A1501      55.412  74.998  10.345 -0.35 +0.03    +0.083 A 
DOCKED: ATOM     14  CMB HEM A1501      55.243  74.251   6.670 -0.56 +0.02    +0.033 C 
DOCKED: ATOM     15  C1C HEM A1501      55.538  75.527  12.780 -0.33 +0.03    +0.079 A 
DOCKED: ATOM     16  C2C HEM A1501      55.819  75.159  14.140 -0.40 -0.00    -0.003 A 
DOCKED: ATOM     17  C3C HEM A1501      55.664  76.288  14.879 -0.41 +0.01    +0.015 A 
DOCKED: ATOM     18  C4C HEM A1501      55.272  77.358  13.941 -0.34 +0.03    +0.083 A 
DOCKED: ATOM     19  CMC HEM A1501      56.206  73.758  14.568 -0.55 +0.01    +0.033 C 
DOCKED: ATOM     20  C1D HEM A1501      54.612  79.776  13.368 -0.33 +0.05    +0.079 A 
DOCKED: ATOM     21  C2D HEM A1501      54.326  81.122  13.765 -0.40 -0.00    -0.007 A 
DOCKED: ATOM     22  C3D HEM A1501      54.085  81.815  12.623 -0.36 -0.01    -0.006 A 
DOCKED: ATOM     23  C4D HEM A1501      54.232  80.887  11.518 -0.23 +0.07    +0.079 A 
DOCKED: ATOM     24  CMD HEM A1501      54.303  81.650  15.144 -0.43 +0.02    +0.032 C 
DOCKED: ATOM     25  NA  HEM A1501      54.562  78.969   9.251 -0.17 -0.20    -0.246 N 
DOCKED: ATOM     26  NB  HEM A1501      55.137  76.234   9.877 -0.08 -0.11    -0.246 N 
DOCKED: ATOM     27  NC  HEM A1501      55.240  76.848  12.708 -0.16 -0.11    -0.246 N 
DOCKED: ATOM     28  ND  HEM A1501      54.554  79.661  12.007 -0.13 -0.18    -0.246 N 
DOCKED: ATOM     29 FE   HEM A1501      54.882  77.935  10.982 -0.07 +0.00    +0.000 Fe
DOCKED: ENDROOT
DOCKED: BRANCH  22  30
DOCKED: ATOM     30  CAD HEM A1501      53.742  83.257  12.585 -0.45 +0.05    +0.039 C 
DOCKED: BRANCH  30  31
DOCKED: ATOM     31  CBD HEM A1501      52.257  83.498  12.851 -0.45 +0.12    +0.102 C 
DOCKED: BRANCH  31  32
DOCKED: ATOM     32  CGD HEM A1501      51.970  84.887  13.390 -0.51 +0.26    +0.186 C 
DOCKED: ATOM     33  O1D HEM A1501      52.997  85.597  13.463 -0.41 -1.22    -0.647 OA
DOCKED: ATOM     34  O2D HEM A1501      50.761  85.295  13.691 -0.97 -0.89    -0.647 OA
DOCKED: ENDBRANCH  31  32
DOCKED: ENDBRANCH  30  31
DOCKED: ENDBRANCH  22  30
DOCKED: BRANCH   6  35
DOCKED: ATOM     35  CAA HEM A1501      53.884  81.951   7.070 -0.44 +0.05    +0.039 C 
DOCKED: BRANCH  35  36
DOCKED: ATOM     36  CBA HEM A1501      52.397  82.234   6.975 -0.56 +0.16    +0.102 C 
DOCKED: BRANCH  36  37
DOCKED: ATOM     37  CGA HEM A1501      52.055  83.514   6.262 -0.61 +0.35    +0.186 C 
DOCKED: ATOM     38  O1A HEM A1501      51.117  83.499   5.432 -1.06 -1.30    -0.647 OA
DOCKED: ATOM     39  O2A HEM A1501      52.688  84.547   6.562 -1.14 -1.66    -0.647 OA
DOCKED: ENDBRANCH  36  37
DOCKED: ENDBRANCH  35  36
DOCKED: ENDBRANCH   6  35
DOCKED: BRANCH  17  40
DOCKED: ATOM     40  CAC HEM A1501      55.831  76.458  16.327 -0.58 +0.00    +0.001 C 
DOCKED: ATOM     41  CBC HEM A1501      55.188  75.788  17.295 -0.68 +0.00    +0.000 C 
DOCKED: ENDBRANCH  17  40
DOCKED: BRANCH  12  42
DOCKED: ATOM     42  CAB HEM A1501      55.730  72.601   9.483 -0.49 +0.00    +0.001 C 
DOCKED: ATOM     43  CBB HEM A1501      54.970  71.549   9.254 -0.56 +0.00    +0.000 C 
DOCKED: ENDBRANCH  12  42
DOCKED: TORSDOF 8
DOCKED: TER
DOCKED: ENDMDL
________________________________________________________________________________


	BEGINNING GENETIC ALGORITHM DOCKING 15 of 100
Run: 15 Seed: 436759358 1782760514 [ Run 15 of 100 GA/GALS ]
Beginning LAMARCKIAN GENETIC ALGORITHM (LGA), with a maximum of 2500000 energy evaluations.

Final-Value: -23.185


	FINAL GENETIC ALGORITHM DOCKED STATE
	_______________________________________________


Detailed state:  trans 54.417 78.949 10.617 quatxyzw -0.018501 -0.011286 0.021032 -0.999544 center 54.495 78.699 10.493 ntor 8 -3.6698 50.8163 -172.7300 168.2107 -1.9032 -18.1669 0.4499 -6.2525
State:	 54.417  78.949  10.617  -0.613 -0.374  0.696 -3.461     -3.67   50.82 -172.73  168.21   -1.90  -18.17    0.45   -6.25

DOCKED: MODEL       15
DOCKED: USER    Run = 15
DOCKED: USER    DPF = C:/Users/georg/Desktop/Dock/executables_autodock_tools/receptor.dpf
DOCKED: USER  
DOCKED: USER    Estimated Free Energy of Binding    =  -20.21 kcal/mol  [=(1)+(2)+(3)-(4)]
DOCKED: USER    Estimated Inhibition Constant, Ki   =    1.55 fM (femtomolar)  [Temperature = 298.15 K]
DOCKED: USER    
DOCKED: USER    (1) Final Intermolecular Energy     =  -22.59 kcal/mol
DOCKED: USER        vdW + Hbond + desolv Energy     =  -18.43 kcal/mol
DOCKED: USER        Electrostatic Energy            =   -4.16 kcal/mol
DOCKED: USER    (2) Final Total Internal Energy     =   -0.59 kcal/mol
DOCKED: USER    (3) Torsional Free Energy           =   +2.39 kcal/mol
DOCKED: USER    (4) Unbound System's Energy  [=(2)] =   -0.59 kcal/mol
DOCKED: USER    
DOCKED: USER    
DOCKED: USER    NEWDPF move ligand.pdbqt
DOCKED: USER    NEWDPF about 54.495000 78.699000 10.493000
DOCKED: USER    NEWDPF tran0 54.417026 78.949232 10.616559
DOCKED: USER    NEWDPF quaternion0 -0.018501 -0.011286 0.021032 -0.999544
DOCKED: USER    NEWDPF axisangle0 -0.612627 -0.373715 0.696438 -3.461085
DOCKED: USER    NEWDPF quat0 -0.612627 -0.373715 0.696438 -3.461085
DOCKED: USER    NEWDPF dihe0 -3.67 50.82 -172.73 168.21 -1.90 -18.17 0.45 -6.25 
DOCKED: USER  keepresnum = 1 
DOCKED: USER  
DOCKED: REMARK  8 active torsions:
DOCKED: REMARK  status: ('A' for Active; 'I' for Inactive)
DOCKED: REMARK    1  A    between atoms: C2A_3624  and  CAA_3628 
DOCKED: REMARK    2  A    between atoms: CAA_3628  and  CBA_3629 
DOCKED: REMARK    3  A    between atoms: CBA_3629  and  CGA_3630 
DOCKED: REMARK    4  A    between atoms: C3B_3635  and  CAB_3638 
DOCKED: REMARK    5  A    between atoms: C3C_3642  and  CAC_3645 
DOCKED: REMARK    6  A    between atoms: C3D_3649  and  CAD_3652 
DOCKED: REMARK    7  A    between atoms: CAD_3652  and  CBD_3653 
DOCKED: REMARK    8  A    between atoms: CBD_3653  and  CGD_3654 
DOCKED: USER                              x       y       z     vdW  Elec       q    Type
DOCKED: USER                           _______ _______ _______ _____ _____    ______ ____
DOCKED: ROOT
DOCKED: ATOM      1  CHA HEM A1501      54.263  81.260  10.116 -0.28 +0.04    +0.038 A 
DOCKED: ATOM      2  CHB HEM A1501      55.140  78.777  14.142 -0.38 +0.02    +0.038 A 
DOCKED: ATOM      3  CHC HEM A1501      55.610  74.723  11.569 -0.39 +0.01    +0.038 A 
DOCKED: ATOM      4  CHD HEM A1501      54.666  77.197   7.543 -0.37 +0.03    +0.038 A 
DOCKED: ATOM      5  C1A HEM A1501      54.434  80.937  11.458 -0.23 +0.07    +0.079 A 
DOCKED: ATOM      6  C2A HEM A1501      54.338  81.850  12.602 -0.33 -0.01    -0.006 A 
DOCKED: ATOM      7  C3A HEM A1501      54.586  81.141  13.693 -0.37 -0.00    -0.007 A 
DOCKED: ATOM      8  C4A HEM A1501      54.827  79.797  13.265 -0.30 +0.05    +0.079 A 
DOCKED: ATOM      9  CMA HEM A1501      54.595  81.625  15.111 -0.46 +0.02    +0.032 C 
DOCKED: ATOM     10  C1B HEM A1501      55.377  77.457  13.804 -0.33 +0.03    +0.079 A 
DOCKED: ATOM     11  C2B HEM A1501      55.724  76.420  14.768 -0.41 -0.00    -0.003 A 
DOCKED: ATOM     12  C3B HEM A1501      55.871  75.285  14.036 -0.40 +0.01    +0.015 A 
DOCKED: ATOM     13  C4B HEM A1501      55.589  75.627  12.645 -0.32 +0.03    +0.083 A 
DOCKED: ATOM     14  CMB HEM A1501      55.878  76.639  16.248 -0.54 +0.01    +0.033 C 
DOCKED: ATOM     15  C1C HEM A1501      55.372  74.979  10.245 -0.36 +0.03    +0.079 A 
DOCKED: ATOM     16  C2C HEM A1501      55.326  73.991   9.202 -0.46 -0.00    -0.003 A 
DOCKED: ATOM     17  C3C HEM A1501      55.045  74.663   8.056 -0.45 +0.01    +0.015 A 
DOCKED: ATOM     18  C4C HEM A1501      54.926  76.089   8.419 -0.34 +0.05    +0.083 A 
DOCKED: ATOM     19  CMC HEM A1501      55.560  72.512   9.435 -0.53 +0.01    +0.033 C 
DOCKED: ATOM     20  C1D HEM A1501      54.522  78.568   7.868 -0.31 +0.06    +0.079 A 
DOCKED: ATOM     21  C2D HEM A1501      54.256  79.612   6.926 -0.36 -0.01    -0.007 A 
DOCKED: ATOM     22  C3D HEM A1501      54.143  80.758   7.645 -0.34 -0.01    -0.006 A 
DOCKED: ATOM     23  C4D HEM A1501      54.334  80.410   9.040 -0.26 +0.08    +0.079 A 
DOCKED: ATOM     24  CMD HEM A1501      54.127  79.469   5.462 -0.48 +0.03    +0.032 C 
DOCKED: ATOM     25  NA  HEM A1501      54.706  79.673  11.912 -0.14 -0.18    -0.246 N 
DOCKED: ATOM     26  NB  HEM A1501      55.318  76.944  12.531 -0.14 -0.11    -0.246 N 
DOCKED: ATOM     27  NC  HEM A1501      55.104  76.207   9.736 -0.10 -0.12    -0.246 N 
DOCKED: ATOM     28  ND  HEM A1501      54.559  79.073   9.138 -0.18 -0.20    -0.246 N 
DOCKED: ATOM     29 FE   HEM A1501      54.912  77.967  10.808 -0.07 +0.00    +0.000 Fe
DOCKED: ENDROOT
DOCKED: BRANCH  22  30
DOCKED: ATOM     30  CAD HEM A1501      53.870  82.088   7.050 -0.44 +0.05    +0.039 C 
DOCKED: BRANCH  30  31
DOCKED: ATOM     31  CBD HEM A1501      52.374  82.325   6.843 -0.57 +0.16    +0.102 C 
DOCKED: BRANCH  31  32
DOCKED: ATOM     32  CGD HEM A1501      52.068  83.679   6.231 -0.63 +0.36    +0.186 C 
DOCKED: ATOM     33  O1D HEM A1501      52.917  84.546   6.533 -1.19 -1.70    -0.647 OA
DOCKED: ATOM     34  O2D HEM A1501      51.048  83.884   5.435 -1.00 -1.35    -0.647 OA
DOCKED: ENDBRANCH  31  32
DOCKED: ENDBRANCH  30  31
DOCKED: ENDBRANCH  22  30
DOCKED: BRANCH   6  35
DOCKED: ATOM     35  CAA HEM A1501      54.017  83.303  12.585 -0.41 +0.05    +0.039 C 
DOCKED: BRANCH  35  36
DOCKED: ATOM     36  CBA HEM A1501      52.531  83.551  12.756 -0.50 +0.12    +0.102 C 
DOCKED: BRANCH  36  37
DOCKED: ATOM     37  CGA HEM A1501      52.186  84.924  13.266 -0.47 +0.27    +0.186 C 
DOCKED: ATOM     38  O1A HEM A1501      53.114  85.650  13.691 -0.49 -1.13    -0.647 OA
DOCKED: ATOM     39  O2A HEM A1501      50.998  85.299  13.202 -0.71 -0.94    -0.647 OA
DOCKED: ENDBRANCH  36  37
DOCKED: ENDBRANCH  35  36
DOCKED: ENDBRANCH   6  35
DOCKED: BRANCH  17  40
DOCKED: ATOM     40  CAC HEM A1501      54.889  74.124   6.700 -0.59 +0.00    +0.001 C 
DOCKED: ATOM     41  CBC HEM A1501      53.772  74.129   5.957 -0.65 +0.00    +0.000 C 
DOCKED: ENDBRANCH  17  40
DOCKED: BRANCH  12  42
DOCKED: ATOM     42  CAB HEM A1501      56.231  73.906  14.439 -0.56 +0.00    +0.001 C 
DOCKED: ATOM     43  CBB HEM A1501      56.060  73.278  15.585 -0.60 +0.00    +0.000 C 
DOCKED: ENDBRANCH  12  42
DOCKED: TORSDOF 8
DOCKED: TER
DOCKED: ENDMDL
________________________________________________________________________________


	BEGINNING GENETIC ALGORITHM DOCKING 16 of 100
Run: 16 Seed: 819309778 1593167853 [ Run 16 of 100 GA/GALS ]
Beginning LAMARCKIAN GENETIC ALGORITHM (LGA), with a maximum of 2500000 energy evaluations.

Final-Value: -23.148


	FINAL GENETIC ALGORITHM DOCKED STATE
	_______________________________________________


Detailed state:  trans 54.954 78.924 10.457 quatxyzw -0.178922 0.965391 -0.188542 -0.021404 center 54.495 78.699 10.493 ntor 8 162.2439 -66.5652 -146.1014 131.6895 -26.8575 6.8898 -168.5059 -179.9428
State:	 54.954  78.924  10.457  -0.179  0.966 -0.189 -177.547    162.24  -66.57 -146.10  131.69  -26.86    6.89 -168.51 -179.94

DOCKED: MODEL       16
DOCKED: USER    Run = 16
DOCKED: USER    DPF = C:/Users/georg/Desktop/Dock/executables_autodock_tools/receptor.dpf
DOCKED: USER  
DOCKED: USER    Estimated Free Energy of Binding    =  -20.14 kcal/mol  [=(1)+(2)+(3)-(4)]
DOCKED: USER    Estimated Inhibition Constant, Ki   =    1.72 fM (femtomolar)  [Temperature = 298.15 K]
DOCKED: USER    
DOCKED: USER    (1) Final Intermolecular Energy     =  -22.53 kcal/mol
DOCKED: USER        vdW + Hbond + desolv Energy     =  -18.38 kcal/mol
DOCKED: USER        Electrostatic Energy            =   -4.15 kcal/mol
DOCKED: USER    (2) Final Total Internal Energy     =   -0.62 kcal/mol
DOCKED: USER    (3) Torsional Free Energy           =   +2.39 kcal/mol
DOCKED: USER    (4) Unbound System's Energy  [=(2)] =   -0.62 kcal/mol
DOCKED: USER    
DOCKED: USER    
DOCKED: USER    NEWDPF move ligand.pdbqt
DOCKED: USER    NEWDPF about 54.495000 78.699000 10.493000
DOCKED: USER    NEWDPF tran0 54.953706 78.923560 10.457308
DOCKED: USER    NEWDPF quaternion0 -0.178922 0.965391 -0.188542 -0.021404
DOCKED: USER    NEWDPF axisangle0 -0.178963 0.965613 -0.188585 -177.547115
DOCKED: USER    NEWDPF quat0 -0.178963 0.965613 -0.188585 -177.547115
DOCKED: USER    NEWDPF dihe0 162.24 -66.57 -146.10 131.69 -26.86 6.89 -168.51 -179.94 
DOCKED: USER  keepresnum = 1 
DOCKED: USER  
DOCKED: REMARK  8 active torsions:
DOCKED: REMARK  status: ('A' for Active; 'I' for Inactive)
DOCKED: REMARK    1  A    between atoms: C2A_3624  and  CAA_3628 
DOCKED: REMARK    2  A    between atoms: CAA_3628  and  CBA_3629 
DOCKED: REMARK    3  A    between atoms: CBA_3629  and  CGA_3630 
DOCKED: REMARK    4  A    between atoms: C3B_3635  and  CAB_3638 
DOCKED: REMARK    5  A    between atoms: C3C_3642  and  CAC_3645 
DOCKED: REMARK    6  A    between atoms: C3D_3649  and  CAD_3652 
DOCKED: REMARK    7  A    between atoms: CAD_3652  and  CBD_3653 
DOCKED: REMARK    8  A    between atoms: CBD_3653  and  CGD_3654 
DOCKED: USER                              x       y       z     vdW  Elec       q    Type
DOCKED: USER                           _______ _______ _______ _____ _____    ______ ____
DOCKED: ROOT
DOCKED: ATOM      1  CHA HEM A1501      54.185  81.111   9.971 -0.28 +0.04    +0.038 A 
DOCKED: ATOM      2  CHB HEM A1501      54.707  77.108   7.355 -0.38 +0.03    +0.038 A 
DOCKED: ATOM      3  CHC HEM A1501      55.524  74.561  11.371 -0.40 +0.01    +0.038 A 
DOCKED: ATOM      4  CHD HEM A1501      55.067  78.582  13.985 -0.38 +0.02    +0.038 A 
DOCKED: ATOM      5  C1A HEM A1501      54.282  80.244   8.888 -0.27 +0.08    +0.079 A 
DOCKED: ATOM      6  C2A HEM A1501      54.147  80.591   7.469 -0.35 -0.01    -0.006 A 
DOCKED: ATOM      7  C3A HEM A1501      54.292  79.472   6.775 -0.37 -0.01    -0.007 A 
DOCKED: ATOM      8  C4A HEM A1501      54.527  78.427   7.724 -0.32 +0.06    +0.079 A 
DOCKED: ATOM      9  CMA HEM A1501      54.247  79.311   5.286 -0.50 +0.03    +0.032 C 
DOCKED: ATOM     10  C1B HEM A1501      54.946  76.049   8.211 -0.35 +0.04    +0.079 A 
DOCKED: ATOM     11  C2B HEM A1501      55.109  74.668   7.772 -0.46 -0.00    -0.003 A 
DOCKED: ATOM     12  C3B HEM A1501      55.323  73.954   8.908 -0.44 +0.01    +0.015 A 
DOCKED: ATOM     13  C4B HEM A1501      55.315  74.898  10.022 -0.36 +0.03    +0.083 A 
DOCKED: ATOM     14  CMB HEM A1501      55.035  74.206   6.343 -0.57 +0.02    +0.033 C 
DOCKED: ATOM     15  C1C HEM A1501      55.515  75.390  12.460 -0.33 +0.03    +0.079 A 
DOCKED: ATOM     16  C2C HEM A1501      55.819  74.995  13.808 -0.41 -0.00    -0.003 A 
DOCKED: ATOM     17  C3C HEM A1501      55.713  76.117  14.565 -0.39 +0.01    +0.015 A 
DOCKED: ATOM     18  C4C HEM A1501      55.328  77.210  13.651 -0.31 +0.04    +0.083 A 
DOCKED: ATOM     19  CMC HEM A1501      56.178  73.578  14.207 -0.54 +0.01    +0.033 C 
DOCKED: ATOM     20  C1D HEM A1501      54.721  79.654  13.126 -0.30 +0.05    +0.079 A 
DOCKED: ATOM     21  C2D HEM A1501      54.483  81.001  13.547 -0.37 -0.00    -0.007 A 
DOCKED: ATOM     22  C3D HEM A1501      54.233  81.717  12.421 -0.33 -0.01    -0.006 A 
DOCKED: ATOM     23  C4D HEM A1501      54.327  80.800  11.301 -0.22 +0.07    +0.079 A 
DOCKED: ATOM     24  CMD HEM A1501      54.507  81.510  14.933 -0.47 +0.02    +0.032 C 
DOCKED: ATOM     25  NA  HEM A1501      54.548  78.905   9.001 -0.19 -0.20    -0.246 N 
DOCKED: ATOM     26  NB  HEM A1501      55.062  76.147   9.577 -0.14 -0.12    -0.246 N 
DOCKED: ATOM     27  NC  HEM A1501      55.253  76.719  12.412 -0.12 -0.11    -0.246 N 
DOCKED: ATOM     28  ND  HEM A1501      54.627  79.559  11.766 -0.11 -0.18    -0.246 N 
DOCKED: ATOM     29 FE   HEM A1501      54.882  77.839  10.710 -0.07 +0.00    +0.000 Fe
DOCKED: ENDROOT
DOCKED: BRANCH  22  30
DOCKED: ATOM     30  CAD HEM A1501      53.929  83.167  12.410 -0.41 +0.05    +0.039 C 
DOCKED: BRANCH  30  31
DOCKED: ATOM     31  CBD HEM A1501      52.449  83.443  12.676 -0.45 +0.12    +0.102 C 
DOCKED: BRANCH  31  32
DOCKED: ATOM     32  CGD HEM A1501      52.198  84.822  13.255 -0.48 +0.27    +0.186 C 
DOCKED: ATOM     33  O1D HEM A1501      53.256  85.457  13.462 -0.49 -1.14    -0.647 OA
DOCKED: ATOM     34  O2D HEM A1501      50.995  85.297  13.462 -0.80 -0.93    -0.647 OA
DOCKED: ENDBRANCH  31  32
DOCKED: ENDBRANCH  30  31
DOCKED: ENDBRANCH  22  30
DOCKED: BRANCH   6  35
DOCKED: ATOM     35  CAA HEM A1501      53.899  81.934   6.877 -0.44 +0.05    +0.039 C 
DOCKED: BRANCH  35  36
DOCKED: ATOM     36  CBA HEM A1501      52.430  82.304   6.922 -0.56 +0.16    +0.102 C 
DOCKED: BRANCH  36  37
DOCKED: ATOM     37  CGA HEM A1501      52.103  83.623   6.275 -0.62 +0.35    +0.186 C 
DOCKED: ATOM     38  O1A HEM A1501      52.814  84.615   6.557 -1.12 -1.73    -0.647 OA
DOCKED: ATOM     39  O2A HEM A1501      51.167  83.663   5.451 -1.05 -1.30    -0.647 OA
DOCKED: ENDBRANCH  36  37
DOCKED: ENDBRANCH  35  36
DOCKED: ENDBRANCH   6  35
DOCKED: BRANCH  17  40
DOCKED: ATOM     40  CAC HEM A1501      55.921  76.264  16.010 -0.56 +0.00    +0.001 C 
DOCKED: ATOM     41  CBC HEM A1501      55.061  75.926  16.984 -0.63 +0.00    +0.000 C 
DOCKED: ENDBRANCH  17  40
DOCKED: BRANCH  12  42
DOCKED: ATOM     42  CAB HEM A1501      55.545  72.505   9.121 -0.54 +0.00    +0.001 C 
DOCKED: ATOM     43  CBB HEM A1501      54.685  71.533   9.350 -0.50 +0.00    +0.000 C 
DOCKED: ENDBRANCH  12  42
DOCKED: TORSDOF 8
DOCKED: TER
DOCKED: ENDMDL
________________________________________________________________________________


	BEGINNING GENETIC ALGORITHM DOCKING 17 of 100
Run: 17 Seed: 555674626 775597814 [ Run 17 of 100 GA/GALS ]
Beginning LAMARCKIAN GENETIC ALGORITHM (LGA), with a maximum of 2500000 energy evaluations.

Final-Value: -22.918


	FINAL GENETIC ALGORITHM DOCKED STATE
	_______________________________________________


Detailed state:  trans 54.339 78.726 10.130 quatxyzw -0.013759 -0.005222 0.004836 -0.999880 center 54.495 78.699 10.493 ntor 8 -63.8387 -4.8912 -24.8887 154.5893 2.8539 -8.0901 30.4797 19.8450
State:	 54.339  78.726  10.130  -0.888 -0.337  0.312 -1.775    -63.84   -4.89  -24.89  154.59    2.85   -8.09   30.48   19.84

DOCKED: MODEL       17
DOCKED: USER    Run = 17
DOCKED: USER    DPF = C:/Users/georg/Desktop/Dock/executables_autodock_tools/receptor.dpf
DOCKED: USER  
DOCKED: USER    Estimated Free Energy of Binding    =  -20.03 kcal/mol  [=(1)+(2)+(3)-(4)]
DOCKED: USER    Estimated Inhibition Constant, Ki   =    2.09 fM (femtomolar)  [Temperature = 298.15 K]
DOCKED: USER    
DOCKED: USER    (1) Final Intermolecular Energy     =  -22.41 kcal/mol
DOCKED: USER        vdW + Hbond + desolv Energy     =  -17.84 kcal/mol
DOCKED: USER        Electrostatic Energy            =   -4.57 kcal/mol
DOCKED: USER    (2) Final Total Internal Energy     =   -0.50 kcal/mol
DOCKED: USER    (3) Torsional Free Energy           =   +2.39 kcal/mol
DOCKED: USER    (4) Unbound System's Energy  [=(2)] =   -0.50 kcal/mol
DOCKED: USER    
DOCKED: USER    
DOCKED: USER    NEWDPF move ligand.pdbqt
DOCKED: USER    NEWDPF about 54.495000 78.699000 10.493000
DOCKED: USER    NEWDPF tran0 54.338722 78.726250 10.130000
DOCKED: USER    NEWDPF quaternion0 -0.013759 -0.005222 0.004836 -0.999880
DOCKED: USER    NEWDPF axisangle0 -0.888209 -0.337101 0.312165 -1.775213
DOCKED: USER    NEWDPF quat0 -0.888209 -0.337101 0.312165 -1.775213
DOCKED: USER    NEWDPF dihe0 -63.84 -4.89 -24.89 154.59 2.85 -8.09 30.48 19.84 
DOCKED: USER  keepresnum = 1 
DOCKED: USER  
DOCKED: REMARK  8 active torsions:
DOCKED: REMARK  status: ('A' for Active; 'I' for Inactive)
DOCKED: REMARK    1  A    between atoms: C2A_3624  and  CAA_3628 
DOCKED: REMARK    2  A    between atoms: CAA_3628  and  CBA_3629 
DOCKED: REMARK    3  A    between atoms: CBA_3629  and  CGA_3630 
DOCKED: REMARK    4  A    between atoms: C3B_3635  and  CAB_3638 
DOCKED: REMARK    5  A    between atoms: C3C_3642  and  CAC_3645 
DOCKED: REMARK    6  A    between atoms: C3D_3649  and  CAD_3652 
DOCKED: REMARK    7  A    between atoms: CAD_3652  and  CBD_3653 
DOCKED: REMARK    8  A    between atoms: CBD_3653  and  CGD_3654 
DOCKED: USER                              x       y       z     vdW  Elec       q    Type
DOCKED: USER                           _______ _______ _______ _____ _____    ______ ____
DOCKED: ROOT
DOCKED: ATOM      1  CHA HEM A1501      54.254  81.045   9.653 -0.29 +0.04    +0.038 A 
DOCKED: ATOM      2  CHB HEM A1501      55.097  78.496  13.645 -0.35 +0.02    +0.038 A 
DOCKED: ATOM      3  CHC HEM A1501      55.404  74.454  11.028 -0.41 +0.01    +0.038 A 
DOCKED: ATOM      4  CHD HEM A1501      54.495  76.997   7.038 -0.42 +0.03    +0.038 A 
DOCKED: ATOM      5  C1A HEM A1501      54.430  80.704  10.990 -0.21 +0.07    +0.079 A 
DOCKED: ATOM      6  C2A HEM A1501      54.377  81.608  12.143 -0.30 -0.01    -0.006 A 
DOCKED: ATOM      7  C3A HEM A1501      54.615  80.881  13.225 -0.34 -0.00    -0.007 A 
DOCKED: ATOM      8  C4A HEM A1501      54.807  79.534  12.781 -0.26 +0.05    +0.079 A 
DOCKED: ATOM      9  CMA HEM A1501      54.655  81.351  14.647 -0.45 +0.02    +0.032 C 
DOCKED: ATOM     10  C1B HEM A1501      55.286  77.173  13.292 -0.29 +0.04    +0.079 A 
DOCKED: ATOM     11  C2B HEM A1501      55.611  76.116  14.242 -0.39 -0.00    -0.003 A 
DOCKED: ATOM     12  C3B HEM A1501      55.712  74.984  13.498 -0.40 +0.01    +0.015 A 
DOCKED: ATOM     13  C4B HEM A1501      55.426  75.348  12.113 -0.32 +0.03    +0.083 A 
DOCKED: ATOM     14  CMB HEM A1501      55.789  76.315  15.722 -0.51 +0.01    +0.033 C 
DOCKED: ATOM     15  C1C HEM A1501      55.159  74.731   9.710 -0.38 +0.03    +0.079 A 
DOCKED: ATOM     16  C2C HEM A1501      55.070  73.756   8.659 -0.46 -0.00    -0.003 A 
DOCKED: ATOM     17  C3C HEM A1501      54.797  74.447   7.522 -0.47 +0.01    +0.015 A 
DOCKED: ATOM     18  C4C HEM A1501      54.729  75.872   7.900 -0.38 +0.05    +0.083 A 
DOCKED: ATOM     19  CMC HEM A1501      55.258  72.268   8.875 -0.53 +0.01    +0.033 C 
DOCKED: ATOM     20  C1D HEM A1501      54.400  78.369   7.377 -0.34 +0.06    +0.079 A 
DOCKED: ATOM     21  C2D HEM A1501      54.157  79.430   6.448 -0.38 -0.01    -0.007 A 
DOCKED: ATOM     22  C3D HEM A1501      54.089  80.572   7.179 -0.36 -0.01    -0.006 A 
DOCKED: ATOM     23  C4D HEM A1501      54.285  80.204   8.568 -0.28 +0.08    +0.079 A 
DOCKED: ATOM     24  CMD HEM A1501      54.006  79.305   4.984 -0.48 +0.03    +0.032 C 
DOCKED: ATOM     25  NA  HEM A1501      54.666  79.427  11.429 -0.08 -0.18    -0.246 N 
DOCKED: ATOM     26  NB  HEM A1501      55.197  76.674  12.014 +0.01 -0.11    -0.246 N 
DOCKED: ATOM     27  NC  HEM A1501      54.926  75.971   9.215 -0.21 -0.12    -0.246 N 
DOCKED: ATOM     28  ND  HEM A1501      54.468  78.860   8.651 -0.21 -0.20    -0.246 N 
DOCKED: ATOM     29 FE   HEM A1501      54.804  77.727  10.306 -0.07 +0.00    +0.000 Fe
DOCKED: ENDROOT
DOCKED: BRANCH  22  30
DOCKED: ATOM     30  CAD HEM A1501      53.853  81.916   6.600 -0.46 +0.05    +0.039 C 
DOCKED: BRANCH  30  31
DOCKED: ATOM     31  CBD HEM A1501      52.523  82.511   7.061 -0.56 +0.16    +0.102 C 
DOCKED: BRANCH  31  32
DOCKED: ATOM     32  CGD HEM A1501      52.201  83.834   6.390 -0.61 +0.37    +0.186 C 
DOCKED: ATOM     33  O1D HEM A1501      51.151  83.787   5.714 -0.95 -1.35    -0.647 OA
DOCKED: ATOM     34  O2D HEM A1501      52.931  84.909   6.557 -0.97 -1.95    -0.647 OA
DOCKED: ENDBRANCH  31  32
DOCKED: ENDBRANCH  30  31
DOCKED: ENDBRANCH  22  30
DOCKED: BRANCH   6  35
DOCKED: ATOM     35  CAA HEM A1501      54.103  83.071  12.144 -0.38 +0.05    +0.039 C 
DOCKED: BRANCH  35  36
DOCKED: ATOM     36  CBA HEM A1501      52.850  83.407  12.929 -0.51 +0.12    +0.102 C 
DOCKED: BRANCH  36  37
DOCKED: ATOM     37  CGA HEM A1501      52.671  84.873  13.213 -0.41 +0.28    +0.186 C 
DOCKED: ATOM     38  O1A HEM A1501      53.688  85.605  13.226 -0.37 -1.26    -0.647 OA
DOCKED: ATOM     39  O2A HEM A1501      51.513  85.308  13.378 -0.59 -1.00    -0.647 OA
DOCKED: ENDBRANCH  36  37
DOCKED: ENDBRANCH  35  36
DOCKED: ENDBRANCH   6  35
DOCKED: BRANCH  17  40
DOCKED: ATOM     40  CAC HEM A1501      54.608  73.926   6.163 -0.61 +0.00    +0.001 C 
DOCKED: ATOM     41  CBC HEM A1501      53.732  72.985   5.777 -0.68 +0.00    +0.000 C 
DOCKED: ENDBRANCH  17  40
DOCKED: BRANCH  12  42
DOCKED: ATOM     42  CAB HEM A1501      56.032  73.590  13.883 -0.54 +0.00    +0.001 C 
DOCKED: ATOM     43  CBB HEM A1501      56.764  73.124  14.875 -0.63 +0.00    +0.000 C 
DOCKED: ENDBRANCH  12  42
DOCKED: TORSDOF 8
DOCKED: TER
DOCKED: ENDMDL
________________________________________________________________________________


	BEGINNING GENETIC ALGORITHM DOCKING 18 of 100
Run: 18 Seed: 807749413 1860308549 [ Run 18 of 100 GA/GALS ]
Beginning LAMARCKIAN GENETIC ALGORITHM (LGA), with a maximum of 2500000 energy evaluations.

Final-Value: -23.362


	FINAL GENETIC ALGORITHM DOCKED STATE
	_______________________________________________


Detailed state:  trans 54.872 78.834 10.754 quatxyzw 0.180229 -0.974934 0.129837 -0.012751 center 54.495 78.699 10.493 ntor 8 120.4556 -111.9082 -101.5594 179.4348 8.3861 12.9663 161.7938 134.7846
State:	 54.872  78.834  10.754   0.180 -0.975  0.130 -178.539    120.46 -111.91 -101.56  179.43    8.39   12.97  161.79  134.78

DOCKED: MODEL       18
DOCKED: USER    Run = 18
DOCKED: USER    DPF = C:/Users/georg/Desktop/Dock/executables_autodock_tools/receptor.dpf
DOCKED: USER  
DOCKED: USER    Estimated Free Energy of Binding    =  -20.48 kcal/mol  [=(1)+(2)+(3)-(4)]
DOCKED: USER    Estimated Inhibition Constant, Ki   =  966.17 aM (attomolar)  [Temperature = 298.15 K]
DOCKED: USER    
DOCKED: USER    (1) Final Intermolecular Energy     =  -22.87 kcal/mol
DOCKED: USER        vdW + Hbond + desolv Energy     =  -18.39 kcal/mol
DOCKED: USER        Electrostatic Energy            =   -4.48 kcal/mol
DOCKED: USER    (2) Final Total Internal Energy     =   -0.49 kcal/mol
DOCKED: USER    (3) Torsional Free Energy           =   +2.39 kcal/mol
DOCKED: USER    (4) Unbound System's Energy  [=(2)] =   -0.49 kcal/mol
DOCKED: USER    
DOCKED: USER    
DOCKED: USER    NEWDPF move ligand.pdbqt
DOCKED: USER    NEWDPF about 54.495000 78.699000 10.493000
DOCKED: USER    NEWDPF tran0 54.871550 78.834135 10.754116
DOCKED: USER    NEWDPF quaternion0 0.180229 -0.974934 0.129837 -0.012751
DOCKED: USER    NEWDPF axisangle0 0.180244 -0.975014 0.129847 -178.538794
DOCKED: USER    NEWDPF quat0 0.180244 -0.975014 0.129847 -178.538794
DOCKED: USER    NEWDPF dihe0 120.46 -111.91 -101.56 179.43 8.39 12.97 161.79 134.78 
DOCKED: USER  keepresnum = 1 
DOCKED: USER  
DOCKED: REMARK  8 active torsions:
DOCKED: REMARK  status: ('A' for Active; 'I' for Inactive)
DOCKED: REMARK    1  A    between atoms: C2A_3624  and  CAA_3628 
DOCKED: REMARK    2  A    between atoms: CAA_3628  and  CBA_3629 
DOCKED: REMARK    3  A    between atoms: CBA_3629  and  CGA_3630 
DOCKED: REMARK    4  A    between atoms: C3B_3635  and  CAB_3638 
DOCKED: REMARK    5  A    between atoms: C3C_3642  and  CAC_3645 
DOCKED: REMARK    6  A    between atoms: C3D_3649  and  CAD_3652 
DOCKED: REMARK    7  A    between atoms: CAD_3652  and  CBD_3653 
DOCKED: REMARK    8  A    between atoms: CBD_3653  and  CGD_3654 
DOCKED: USER                              x       y       z     vdW  Elec       q    Type
DOCKED: USER                           _______ _______ _______ _____ _____    ______ ____
DOCKED: ROOT
DOCKED: ATOM      1  CHA HEM A1501      54.098  81.066  10.568 -0.26 +0.04    +0.038 A 
DOCKED: ATOM      2  CHB HEM A1501      54.327  77.355   7.514 -0.40 +0.03    +0.038 A 
DOCKED: ATOM      3  CHC HEM A1501      55.450  74.396  11.155 -0.41 +0.01    +0.038 A 
DOCKED: ATOM      4  CHD HEM A1501      55.286  78.124  14.204 -0.38 +0.02    +0.038 A 
DOCKED: ATOM      5  C1A HEM A1501      54.087  80.316   9.396 -0.24 +0.08    +0.079 A 
DOCKED: ATOM      6  C2A HEM A1501      53.834  80.811   8.038 -0.37 -0.01    -0.006 A 
DOCKED: ATOM      7  C3A HEM A1501      53.900  79.770   7.221 -0.38 -0.01    -0.007 A 
DOCKED: ATOM      8  C4A HEM A1501      54.201  78.630   8.032 -0.34 +0.07    +0.079 A 
DOCKED: ATOM      9  CMA HEM A1501      53.723  79.767   5.734 -0.44 +0.03    +0.032 C 
DOCKED: ATOM     10  C1B HEM A1501      54.623  76.211   8.231 -0.36 +0.05    +0.079 A 
DOCKED: ATOM     11  C2B HEM A1501      54.725  74.883   7.638 -0.47 -0.00    -0.003 A 
DOCKED: ATOM     12  C3B HEM A1501      55.026  74.052   8.670 -0.45 +0.01    +0.015 A 
DOCKED: ATOM     13  C4B HEM A1501      55.130  74.874   9.873 -0.37 +0.03    +0.083 A 
DOCKED: ATOM     14  CMB HEM A1501      54.520  74.574   6.181 -0.59 +0.02    +0.033 C 
DOCKED: ATOM     15  C1C HEM A1501      55.549  75.106  12.321 -0.35 +0.03    +0.079 A 
DOCKED: ATOM     16  C2C HEM A1501      55.963  74.570  13.589 -0.43 -0.00    -0.003 A 
DOCKED: ATOM     17  C3C HEM A1501      55.942  75.608  14.465 -0.40 +0.01    +0.015 A 
DOCKED: ATOM     18  C4C HEM A1501      55.495  76.793  13.706 -0.31 +0.03    +0.083 A 
DOCKED: ATOM     19  CMC HEM A1501      56.333  73.117  13.806 -0.54 +0.01    +0.033 C 
DOCKED: ATOM     20  C1D HEM A1501      54.884  79.282  13.494 -0.33 +0.04    +0.079 A 
DOCKED: ATOM     21  C2D HEM A1501      54.704  80.579  14.073 -0.40 -0.00    -0.007 A 
DOCKED: ATOM     22  C3D HEM A1501      54.369  81.410  13.053 -0.34 -0.00    -0.006 A 
DOCKED: ATOM     23  C4D HEM A1501      54.350  80.616  11.840 -0.22 +0.07    +0.079 A 
DOCKED: ATOM     24  CMD HEM A1501      54.858  80.940  15.496 -0.37 +0.01    +0.032 C 
DOCKED: ATOM     25  NA  HEM A1501      54.340  78.971   9.345 -0.15 -0.20    -0.246 N 
DOCKED: ATOM     26  NB  HEM A1501      54.859  76.165   9.584 -0.05 -0.12    -0.246 N 
DOCKED: ATOM     27  NC  HEM A1501      55.305  76.435  12.435 -0.16 -0.11    -0.246 N 
DOCKED: ATOM     28  ND  HEM A1501      54.670  79.330  12.145 -0.12 -0.17    -0.246 N 
DOCKED: ATOM     29 FE   HEM A1501      54.805  77.729  10.898 -0.07 +0.00    +0.000 Fe
DOCKED: ENDROOT
DOCKED: BRANCH  22  30
DOCKED: ATOM     30  CAD HEM A1501      54.088  82.856  13.220 -0.40 +0.04    +0.039 C 
DOCKED: BRANCH  30  31
DOCKED: ATOM     31  CBD HEM A1501      52.628  83.193  12.920 -0.51 +0.11    +0.102 C 
DOCKED: BRANCH  31  32
DOCKED: ATOM     32  CGD HEM A1501      52.369  84.686  12.837 -0.42 +0.28    +0.186 C 
DOCKED: ATOM     33  O1D HEM A1501      53.270  85.296  12.222 -0.60 -1.49    -0.647 OA
DOCKED: ATOM     34  O2D HEM A1501      51.287  85.246  13.319 -0.63 -0.96    -0.647 OA
DOCKED: ENDBRANCH  31  32
DOCKED: ENDBRANCH  30  31
DOCKED: ENDBRANCH  22  30
DOCKED: BRANCH   6  35
DOCKED: ATOM     35  CAA HEM A1501      53.557  82.210   7.613 -0.44 +0.06    +0.039 C 
DOCKED: BRANCH  35  36
DOCKED: ATOM     36  CBA HEM A1501      52.285  82.306   6.793 -0.57 +0.16    +0.102 C 
DOCKED: BRANCH  36  37
DOCKED: ATOM     37  CGA HEM A1501      52.060  83.649   6.154 -0.63 +0.35    +0.186 C 
DOCKED: ATOM     38  O1A HEM A1501      52.917  84.545   6.335 -1.19 -1.63    -0.647 OA
DOCKED: ATOM     39  O2A HEM A1501      51.052  83.801   5.433 -1.06 -1.34    -0.647 OA
DOCKED: ENDBRANCH  36  37
DOCKED: ENDBRANCH  35  36
DOCKED: ENDBRANCH   6  35
DOCKED: BRANCH  17  40
DOCKED: ATOM     40  CAC HEM A1501      56.276  75.600  15.894 -0.55 +0.00    +0.001 C 
DOCKED: ATOM     41  CBC HEM A1501      55.467  75.934  16.910 -0.65 +0.00    +0.000 C 
DOCKED: ENDBRANCH  17  40
DOCKED: BRANCH  12  42
DOCKED: ATOM     42  CAB HEM A1501      55.243  72.588   8.711 -0.55 +0.00    +0.001 C 
DOCKED: ATOM     43  CBB HEM A1501      54.804  71.682   9.562 -0.54 +0.00    +0.000 C 
DOCKED: ENDBRANCH  12  42
DOCKED: TORSDOF 8
DOCKED: TER
DOCKED: ENDMDL
________________________________________________________________________________


	BEGINNING GENETIC ALGORITHM DOCKING 19 of 100
Run: 19 Seed: 1694989026 421191831 [ Run 19 of 100 GA/GALS ]
Beginning LAMARCKIAN GENETIC ALGORITHM (LGA), with a maximum of 2500000 energy evaluations.

Final-Value: -23.136


	FINAL GENETIC ALGORITHM DOCKED STATE
	_______________________________________________


Detailed state:  trans 54.352 78.836 10.656 quatxyzw 0.009664 -0.014582 0.007634 -0.999818 center 54.495 78.699 10.493 ntor 8 5.9021 -35.0252 49.4356 -172.9109 -8.8739 29.5793 -27.0958 17.6428
State:	 54.352  78.836  10.656   0.506 -0.764  0.400 -2.187      5.90  -35.03   49.44 -172.91   -8.87   29.58  -27.10   17.64

DOCKED: MODEL       19
DOCKED: USER    Run = 19
DOCKED: USER    DPF = C:/Users/georg/Desktop/Dock/executables_autodock_tools/receptor.dpf
DOCKED: USER  
DOCKED: USER    Estimated Free Energy of Binding    =  -20.31 kcal/mol  [=(1)+(2)+(3)-(4)]
DOCKED: USER    Estimated Inhibition Constant, Ki   =    1.30 fM (femtomolar)  [Temperature = 298.15 K]
DOCKED: USER    
DOCKED: USER    (1) Final Intermolecular Energy     =  -22.69 kcal/mol
DOCKED: USER        vdW + Hbond + desolv Energy     =  -18.35 kcal/mol
DOCKED: USER        Electrostatic Energy            =   -4.35 kcal/mol
DOCKED: USER    (2) Final Total Internal Energy     =   -0.44 kcal/mol
DOCKED: USER    (3) Torsional Free Energy           =   +2.39 kcal/mol
DOCKED: USER    (4) Unbound System's Energy  [=(2)] =   -0.44 kcal/mol
DOCKED: USER    
DOCKED: USER    
DOCKED: USER    NEWDPF move ligand.pdbqt
DOCKED: USER    NEWDPF about 54.495000 78.699000 10.493000
DOCKED: USER    NEWDPF tran0 54.352037 78.836349 10.655890
DOCKED: USER    NEWDPF quaternion0 0.009664 -0.014582 0.007634 -0.999818
DOCKED: USER    NEWDPF axisangle0 0.506303 -0.764000 0.399952 -2.187288
DOCKED: USER    NEWDPF quat0 0.506303 -0.764000 0.399952 -2.187288
DOCKED: USER    NEWDPF dihe0 5.90 -35.03 49.44 -172.91 -8.87 29.58 -27.10 17.64 
DOCKED: USER  keepresnum = 1 
DOCKED: USER  
DOCKED: REMARK  8 active torsions:
DOCKED: REMARK  status: ('A' for Active; 'I' for Inactive)
DOCKED: REMARK    1  A    between atoms: C2A_3624  and  CAA_3628 
DOCKED: REMARK    2  A    between atoms: CAA_3628  and  CBA_3629 
DOCKED: REMARK    3  A    between atoms: CBA_3629  and  CGA_3630 
DOCKED: REMARK    4  A    between atoms: C3B_3635  and  CAB_3638 
DOCKED: REMARK    5  A    between atoms: C3C_3642  and  CAC_3645 
DOCKED: REMARK    6  A    between atoms: C3D_3649  and  CAD_3652 
DOCKED: REMARK    7  A    between atoms: CAD_3652  and  CBD_3653 
DOCKED: REMARK    8  A    between atoms: CBD_3653  and  CGD_3654 
DOCKED: USER                              x       y       z     vdW  Elec       q    Type
DOCKED: USER                           _______ _______ _______ _____ _____    ______ ____
DOCKED: ROOT
DOCKED: ATOM      1  CHA HEM A1501      54.261  81.175  10.287 -0.27 +0.04    +0.038 A 
DOCKED: ATOM      2  CHB HEM A1501      55.047  78.446  14.170 -0.39 +0.02    +0.038 A 
DOCKED: ATOM      3  CHC HEM A1501      55.429  74.533  11.372 -0.40 +0.01    +0.038 A 
DOCKED: ATOM      4  CHD HEM A1501      54.576  77.255   7.490 -0.38 +0.03    +0.038 A 
DOCKED: ATOM      5  C1A HEM A1501      54.415  80.772  11.609 -0.23 +0.07    +0.079 A 
DOCKED: ATOM      6  C2A HEM A1501      54.334  81.621  12.802 -0.33 -0.00    -0.006 A 
DOCKED: ATOM      7  C3A HEM A1501      54.557  80.845  13.853 -0.39 -0.00    -0.007 A 
DOCKED: ATOM      8  C4A HEM A1501      54.766  79.522  13.350 -0.32 +0.05    +0.079 A 
DOCKED: ATOM      9  CMA HEM A1501      54.569  81.248  15.296 -0.46 +0.01    +0.032 C 
DOCKED: ATOM     10  C1B HEM A1501      55.252  77.142  13.759 -0.32 +0.03    +0.079 A 
DOCKED: ATOM     11  C2B HEM A1501      55.566  76.043  14.664 -0.39 -0.00    -0.003 A 
DOCKED: ATOM     12  C3B HEM A1501      55.688  74.948  13.870 -0.39 +0.01    +0.015 A 
DOCKED: ATOM     13  C4B HEM A1501      55.424  75.375  12.498 -0.33 +0.03    +0.083 A 
DOCKED: ATOM     14  CMB HEM A1501      55.716  76.174  16.155 -0.55 +0.01    +0.033 C 
DOCKED: ATOM     15  C1C HEM A1501      55.206  74.870  10.065 -0.37 +0.03    +0.079 A 
DOCKED: ATOM     16  C2C HEM A1501      55.142  73.944   8.967 -0.46 -0.00    -0.003 A 
DOCKED: ATOM     17  C3C HEM A1501      54.885  74.687   7.860 -0.45 +0.01    +0.015 A 
DOCKED: ATOM     18  C4C HEM A1501      54.801  76.092   8.302 -0.36 +0.05    +0.083 A 
DOCKED: ATOM     19  CMC HEM A1501      55.336  72.449   9.117 -0.53 +0.01    +0.033 C 
DOCKED: ATOM     20  C1D HEM A1501      54.466  78.609   7.891 -0.32 +0.06    +0.079 A 
DOCKED: ATOM     21  C2D HEM A1501      54.233  79.711   7.008 -0.36 -0.01    -0.007 A 
DOCKED: ATOM     22  C3D HEM A1501      54.144  80.817   7.791 -0.34 -0.01    -0.006 A 
DOCKED: ATOM     23  C4D HEM A1501      54.318  80.386   9.164 -0.26 +0.08    +0.079 A 
DOCKED: ATOM     24  CMD HEM A1501      54.110  79.655   5.538 -0.48 +0.03    +0.032 C 
DOCKED: ATOM     25  NA  HEM A1501      54.651  79.478  11.992 -0.12 -0.17    -0.246 N 
DOCKED: ATOM     26  NB  HEM A1501      55.189  76.703  12.458 -0.12 -0.11    -0.246 N 
DOCKED: ATOM     27  NC  HEM A1501      54.974  76.131   9.624 -0.09 -0.12    -0.246 N 
DOCKED: ATOM     28  ND  HEM A1501      54.507  79.040   9.187 -0.18 -0.20    -0.246 N 
DOCKED: ATOM     29 FE   HEM A1501      54.820  77.833  10.794 -0.07 +0.00    +0.000 Fe
DOCKED: ENDROOT
DOCKED: BRANCH  22  30
DOCKED: ATOM     30  CAD HEM A1501      53.910  82.185   7.270 -0.43 +0.06    +0.039 C 
DOCKED: BRANCH  30  31
DOCKED: ATOM     31  CBD HEM A1501      52.619  82.273   6.456 -0.57 +0.15    +0.102 C 
DOCKED: BRANCH  31  32
DOCKED: ATOM     32  CGD HEM A1501      52.270  83.693   6.051 -0.64 +0.35    +0.186 C 
DOCKED: ATOM     33  O1D HEM A1501      51.104  83.795   5.612 -0.99 -1.35    -0.647 OA
DOCKED: ATOM     34  O2D HEM A1501      53.098  84.697   6.202 -1.08 -1.72    -0.647 OA
DOCKED: ENDBRANCH  31  32
DOCKED: ENDBRANCH  30  31
DOCKED: ENDBRANCH  22  30
DOCKED: BRANCH   6  35
DOCKED: ATOM     35  CAA HEM A1501      54.051  83.081  12.866 -0.40 +0.04    +0.039 C 
DOCKED: BRANCH  35  36
DOCKED: ATOM     36  CBA HEM A1501      52.754  83.369  13.597 -0.48 +0.10    +0.102 C 
DOCKED: BRANCH  36  37
DOCKED: ATOM     37  CGA HEM A1501      52.096  84.663  13.205 -0.49 +0.26    +0.186 C 
DOCKED: ATOM     38  O1A HEM A1501      52.564  85.296  12.230 -0.54 -1.32    -0.647 OA
DOCKED: ATOM     39  O2A HEM A1501      51.084  85.029  13.836 -0.58 -0.86    -0.647 OA
DOCKED: ENDBRANCH  36  37
DOCKED: ENDBRANCH  35  36
DOCKED: ENDBRANCH   6  35
DOCKED: BRANCH  17  40
DOCKED: ATOM     40  CAC HEM A1501      54.725  74.230   6.474 -0.60 +0.00    +0.001 C 
DOCKED: ATOM     41  CBC HEM A1501      53.678  74.463   5.667 -0.66 +0.00    +0.000 C 
DOCKED: ENDBRANCH  17  40
DOCKED: BRANCH  12  42
DOCKED: ATOM     42  CAB HEM A1501      56.010  73.539  14.195 -0.56 +0.00    +0.001 C 
DOCKED: ATOM     43  CBB HEM A1501      57.068  73.018  14.783 -0.64 +0.00    +0.000 C 
DOCKED: ENDBRANCH  12  42
DOCKED: TORSDOF 8
DOCKED: TER
DOCKED: ENDMDL
________________________________________________________________________________


	BEGINNING GENETIC ALGORITHM DOCKING 20 of 100
Run: 20 Seed: 1181744840 1966965922 [ Run 20 of 100 GA/GALS ]
Beginning LAMARCKIAN GENETIC ALGORITHM (LGA), with a maximum of 2500000 energy evaluations.

Final-Value: -23.249


	FINAL GENETIC ALGORITHM DOCKED STATE
	_______________________________________________


Detailed state:  trans 54.373 78.752 10.564 quatxyzw -0.009488 0.017168 -0.006083 0.999789 center 54.495 78.699 10.493 ntor 8 3.4582 -13.8037 1.5092 14.5143 6.9251 23.9966 -1.2045 16.1404
State:	 54.373  78.752  10.564  -0.462  0.836 -0.296  2.353      3.46  -13.80    1.51   14.51    6.93   24.00   -1.20   16.14

DOCKED: MODEL       20
DOCKED: USER    Run = 20
DOCKED: USER    DPF = C:/Users/georg/Desktop/Dock/executables_autodock_tools/receptor.dpf
DOCKED: USER  
DOCKED: USER    Estimated Free Energy of Binding    =  -20.35 kcal/mol  [=(1)+(2)+(3)-(4)]
DOCKED: USER    Estimated Inhibition Constant, Ki   =    1.21 fM (femtomolar)  [Temperature = 298.15 K]
DOCKED: USER    
DOCKED: USER    (1) Final Intermolecular Energy     =  -22.74 kcal/mol
DOCKED: USER        vdW + Hbond + desolv Energy     =  -18.35 kcal/mol
DOCKED: USER        Electrostatic Energy            =   -4.38 kcal/mol
DOCKED: USER    (2) Final Total Internal Energy     =   -0.51 kcal/mol
DOCKED: USER    (3) Torsional Free Energy           =   +2.39 kcal/mol
DOCKED: USER    (4) Unbound System's Energy  [=(2)] =   -0.51 kcal/mol
DOCKED: USER    
DOCKED: USER    
DOCKED: USER    NEWDPF move ligand.pdbqt
DOCKED: USER    NEWDPF about 54.495000 78.699000 10.493000
DOCKED: USER    NEWDPF tran0 54.372513 78.751610 10.564493
DOCKED: USER    NEWDPF quaternion0 -0.009488 0.017168 -0.006083 0.999789
DOCKED: USER    NEWDPF axisangle0 -0.461982 0.835967 -0.296196 2.353488
DOCKED: USER    NEWDPF quat0 -0.461982 0.835967 -0.296196 2.353488
DOCKED: USER    NEWDPF dihe0 3.46 -13.80 1.51 14.51 6.93 24.00 -1.20 16.14 
DOCKED: USER  keepresnum = 1 
DOCKED: USER  
DOCKED: REMARK  8 active torsions:
DOCKED: REMARK  status: ('A' for Active; 'I' for Inactive)
DOCKED: REMARK    1  A    between atoms: C2A_3624  and  CAA_3628 
DOCKED: REMARK    2  A    between atoms: CAA_3628  and  CBA_3629 
DOCKED: REMARK    3  A    between atoms: CBA_3629  and  CGA_3630 
DOCKED: REMARK    4  A    between atoms: C3B_3635  and  CAB_3638 
DOCKED: REMARK    5  A    between atoms: C3C_3642  and  CAC_3645 
DOCKED: REMARK    6  A    between atoms: C3D_3649  and  CAD_3652 
DOCKED: REMARK    7  A    between atoms: CAD_3652  and  CBD_3653 
DOCKED: REMARK    8  A    between atoms: CBD_3653  and  CGD_3654 
DOCKED: USER                              x       y       z     vdW  Elec       q    Type
DOCKED: USER                           _______ _______ _______ _____ _____    ______ ____
DOCKED: ROOT
DOCKED: ATOM      1  CHA HEM A1501      54.291  81.090  10.194 -0.27 +0.04    +0.038 A 
DOCKED: ATOM      2  CHB HEM A1501      55.048  78.360  14.082 -0.39 +0.02    +0.038 A 
DOCKED: ATOM      3  CHC HEM A1501      55.432  74.445  11.288 -0.40 +0.01    +0.038 A 
DOCKED: ATOM      4  CHD HEM A1501      54.607  77.169   7.400 -0.38 +0.03    +0.038 A 
DOCKED: ATOM      5  C1A HEM A1501      54.437  80.687  11.518 -0.22 +0.07    +0.079 A 
DOCKED: ATOM      6  C2A HEM A1501      54.353  81.537  12.710 -0.33 -0.00    -0.006 A 
DOCKED: ATOM      7  C3A HEM A1501      54.568  80.761  13.762 -0.39 -0.00    -0.007 A 
DOCKED: ATOM      8  C4A HEM A1501      54.775  79.436  13.260 -0.31 +0.05    +0.079 A 
DOCKED: ATOM      9  CMA HEM A1501      54.573  81.164  15.205 -0.47 +0.01    +0.032 C 
DOCKED: ATOM     10  C1B HEM A1501      55.251  77.055  13.672 -0.32 +0.03    +0.079 A 
DOCKED: ATOM     11  C2B HEM A1501      55.557  75.955  14.579 -0.38 -0.00    -0.003 A 
DOCKED: ATOM     12  C3B HEM A1501      55.679  74.860  13.786 -0.39 +0.01    +0.015 A 
DOCKED: ATOM     13  C4B HEM A1501      55.425  75.287  12.413 -0.33 +0.03    +0.083 A 
DOCKED: ATOM     14  CMB HEM A1501      55.699  76.086  16.071 -0.54 +0.01    +0.033 C 
DOCKED: ATOM     15  C1C HEM A1501      55.217  74.782   9.979 -0.38 +0.03    +0.079 A 
DOCKED: ATOM     16  C2C HEM A1501      55.156  73.857   8.881 -0.46 -0.00    -0.003 A 
DOCKED: ATOM     17  C3C HEM A1501      54.907  74.600   7.772 -0.46 +0.01    +0.015 A 
DOCKED: ATOM     18  C4C HEM A1501      54.825  76.006   8.214 -0.36 +0.05    +0.083 A 
DOCKED: ATOM     19  CMC HEM A1501      55.345  72.361   9.032 -0.53 +0.01    +0.033 C 
DOCKED: ATOM     20  C1D HEM A1501      54.500  78.523   7.800 -0.32 +0.06    +0.079 A 
DOCKED: ATOM     21  C2D HEM A1501      54.275  79.626   6.916 -0.36 -0.01    -0.007 A 
DOCKED: ATOM     22  C3D HEM A1501      54.186  80.733   7.698 -0.34 -0.01    -0.006 A 
DOCKED: ATOM     23  C4D HEM A1501      54.351  80.301   9.072 -0.26 +0.08    +0.079 A 
DOCKED: ATOM     24  CMD HEM A1501      54.159  79.569   5.445 -0.49 +0.03    +0.032 C 
DOCKED: ATOM     25  NA  HEM A1501      54.667  79.392  11.902 -0.10 -0.17    -0.246 N 
DOCKED: ATOM     26  NB  HEM A1501      55.193  76.616  12.371 -0.11 -0.11    -0.246 N 
DOCKED: ATOM     27  NC  HEM A1501      54.991  76.044   9.537 -0.15 -0.12    -0.246 N 
DOCKED: ATOM     28  ND  HEM A1501      54.536  78.954   9.097 -0.18 -0.20    -0.246 N 
DOCKED: ATOM     29 FE   HEM A1501      54.837  77.747  10.705 -0.07 +0.00    +0.000 Fe
DOCKED: ENDROOT
DOCKED: BRANCH  22  30
DOCKED: ATOM     30  CAD HEM A1501      53.958  82.101   7.176 -0.43 +0.06    +0.039 C 
DOCKED: BRANCH  30  31
DOCKED: ATOM     31  CBD HEM A1501      52.476  82.379   6.930 -0.56 +0.16    +0.102 C 
DOCKED: BRANCH  31  32
DOCKED: ATOM     32  CGD HEM A1501      52.232  83.685   6.196 -0.64 +0.35    +0.186 C 
DOCKED: ATOM     33  O1D HEM A1501      51.263  83.621   5.409 -1.06 -1.27    -0.647 OA
DOCKED: ATOM     34  O2D HEM A1501      52.940  84.765   6.417 -1.06 -1.81    -0.647 OA
DOCKED: ENDBRANCH  31  32
DOCKED: ENDBRANCH  30  31
DOCKED: ENDBRANCH  22  30
DOCKED: BRANCH   6  35
DOCKED: ATOM     35  CAA HEM A1501      54.074  82.998  12.772 -0.40 +0.04    +0.039 C 
DOCKED: BRANCH  35  36
DOCKED: ATOM     36  CBA HEM A1501      52.756  83.288  13.464 -0.49 +0.10    +0.102 C 
DOCKED: BRANCH  36  37
DOCKED: ATOM     37  CGA HEM A1501      52.182  84.644  13.159 -0.49 +0.26    +0.186 C 
DOCKED: ATOM     38  O1A HEM A1501      51.273  85.085  13.899 -0.52 -0.88    -0.647 OA
DOCKED: ATOM     39  O2A HEM A1501      52.666  85.293  12.209 -0.55 -1.35    -0.647 OA
DOCKED: ENDBRANCH  36  37
DOCKED: ENDBRANCH  35  36
DOCKED: ENDBRANCH   6  35
DOCKED: BRANCH  17  40
DOCKED: ATOM     40  CAC HEM A1501      54.752  74.143   6.386 -0.60 +0.00    +0.001 C 
DOCKED: ATOM     41  CBC HEM A1501      53.691  74.340   5.589 -0.66 +0.00    +0.000 C 
DOCKED: ENDBRANCH  17  40
DOCKED: BRANCH  12  42
DOCKED: ATOM     42  CAB HEM A1501      55.995  73.450  14.113 -0.57 +0.00    +0.001 C 
DOCKED: ATOM     43  CBB HEM A1501      56.827  72.945  15.002 -0.63 +0.00    +0.000 C 
DOCKED: ENDBRANCH  12  42
DOCKED: TORSDOF 8
DOCKED: TER
DOCKED: ENDMDL
________________________________________________________________________________


	BEGINNING GENETIC ALGORITHM DOCKING 21 of 100
Run: 21 Seed: 56694561 545041781 [ Run 21 of 100 GA/GALS ]
Beginning LAMARCKIAN GENETIC ALGORITHM (LGA), with a maximum of 2500000 energy evaluations.

Final-Value: -23.353


	FINAL GENETIC ALGORITHM DOCKED STATE
	_______________________________________________


Detailed state:  trans 54.889 79.094 10.870 quatxyzw 0.189455 -0.967098 0.168217 0.023049 center 54.495 78.699 10.493 ntor 8 -180.0000 -43.5184 -133.2928 165.9448 -13.7688 3.3330 -176.7826 147.4875
State:	 54.889  79.094  10.870   0.190 -0.967  0.168 177.359   -180.00  -43.52 -133.29  165.94  -13.77    3.33 -176.78  147.49

DOCKED: MODEL       21
DOCKED: USER    Run = 21
DOCKED: USER    DPF = C:/Users/georg/Desktop/Dock/executables_autodock_tools/receptor.dpf
DOCKED: USER  
DOCKED: USER    Estimated Free Energy of Binding    =  -20.42 kcal/mol  [=(1)+(2)+(3)-(4)]
DOCKED: USER    Estimated Inhibition Constant, Ki   =    1.08 fM (femtomolar)  [Temperature = 298.15 K]
DOCKED: USER    
DOCKED: USER    (1) Final Intermolecular Energy     =  -22.81 kcal/mol
DOCKED: USER        vdW + Hbond + desolv Energy     =  -18.52 kcal/mol
DOCKED: USER        Electrostatic Energy            =   -4.29 kcal/mol
DOCKED: USER    (2) Final Total Internal Energy     =   -0.55 kcal/mol
DOCKED: USER    (3) Torsional Free Energy           =   +2.39 kcal/mol
DOCKED: USER    (4) Unbound System's Energy  [=(2)] =   -0.55 kcal/mol
DOCKED: USER    
DOCKED: USER    
DOCKED: USER    NEWDPF move ligand.pdbqt
DOCKED: USER    NEWDPF about 54.495000 78.699000 10.493000
DOCKED: USER    NEWDPF tran0 54.889180 79.094099 10.869855
DOCKED: USER    NEWDPF quaternion0 0.189455 -0.967098 0.168217 0.023049
DOCKED: USER    NEWDPF axisangle0 0.189505 -0.967355 0.168262 177.358586
DOCKED: USER    NEWDPF quat0 0.189505 -0.967355 0.168262 177.358586
DOCKED: USER    NEWDPF dihe0 -180.00 -43.52 -133.29 165.94 -13.77 3.33 -176.78 147.49 
DOCKED: USER  keepresnum = 1 
DOCKED: USER  
DOCKED: REMARK  8 active torsions:
DOCKED: REMARK  status: ('A' for Active; 'I' for Inactive)
DOCKED: REMARK    1  A    between atoms: C2A_3624  and  CAA_3628 
DOCKED: REMARK    2  A    between atoms: CAA_3628  and  CBA_3629 
DOCKED: REMARK    3  A    between atoms: CBA_3629  and  CGA_3630 
DOCKED: REMARK    4  A    between atoms: C3B_3635  and  CAB_3638 
DOCKED: REMARK    5  A    between atoms: C3C_3642  and  CAC_3645 
DOCKED: REMARK    6  A    between atoms: C3D_3649  and  CAD_3652 
DOCKED: REMARK    7  A    between atoms: CAD_3652  and  CBD_3653 
DOCKED: REMARK    8  A    between atoms: CBD_3653  and  CGD_3654 
DOCKED: USER                              x       y       z     vdW  Elec       q    Type
DOCKED: USER                           _______ _______ _______ _____ _____    ______ ____
DOCKED: ROOT
DOCKED: ATOM      1  CHA HEM A1501      54.070  81.282  10.478 -0.28 +0.04    +0.038 A 
DOCKED: ATOM      2  CHB HEM A1501      54.654  77.399   7.699 -0.36 +0.03    +0.038 A 
DOCKED: ATOM      3  CHC HEM A1501      55.559  74.712  11.603 -0.39 +0.01    +0.038 A 
DOCKED: ATOM      4  CHD HEM A1501      55.040  78.614  14.380 -0.39 +0.02    +0.038 A 
DOCKED: ATOM      5  C1A HEM A1501      54.177  80.462   9.360 -0.25 +0.08    +0.079 A 
DOCKED: ATOM      6  C2A HEM A1501      54.022  80.862   7.957 -0.35 -0.01    -0.006 A 
DOCKED: ATOM      7  C3A HEM A1501      54.184  79.774   7.218 -0.35 -0.01    -0.007 A 
DOCKED: ATOM      8  C4A HEM A1501      54.450  78.698   8.122 -0.31 +0.06    +0.079 A 
DOCKED: ATOM      9  CMA HEM A1501      54.130  79.673   5.724 -0.47 +0.03    +0.032 C 
DOCKED: ATOM     10  C1B HEM A1501      54.923  76.312   8.510 -0.32 +0.04    +0.079 A 
DOCKED: ATOM     11  C2B HEM A1501      55.111  74.953   8.015 -0.45 -0.00    -0.003 A 
DOCKED: ATOM     12  C3B HEM A1501      55.350  74.199   9.120 -0.44 +0.01    +0.015 A 
DOCKED: ATOM     13  C4B HEM A1501      55.331  75.097  10.271 -0.34 +0.03    +0.083 A 
DOCKED: ATOM     14  CMB HEM A1501      55.035  74.548   6.569 -0.57 +0.02    +0.033 C 
DOCKED: ATOM     15  C1C HEM A1501      55.542  75.496  12.725 -0.33 +0.03    +0.079 A 
DOCKED: ATOM     16  C2C HEM A1501      55.866  75.054  14.053 -0.41 -0.00    -0.003 A 
DOCKED: ATOM     17  C3C HEM A1501      55.743  76.143  14.856 -0.40 +0.01    +0.015 A 
DOCKED: ATOM     18  C4C HEM A1501      55.327  77.263  13.989 -0.33 +0.03    +0.083 A 
DOCKED: ATOM     19  CMC HEM A1501      56.258  73.631  14.393 -0.55 +0.01    +0.033 C 
DOCKED: ATOM     20  C1D HEM A1501      54.664  79.712  13.567 -0.34 +0.05    +0.079 A 
DOCKED: ATOM     21  C2D HEM A1501      54.401  81.036  14.044 -0.41 -0.00    -0.007 A 
DOCKED: ATOM     22  C3D HEM A1501      54.126  81.790  12.949 -0.37 -0.00    -0.006 A 
DOCKED: ATOM     23  C4D HEM A1501      54.230  80.922  11.793 -0.24 +0.07    +0.079 A 
DOCKED: ATOM     24  CMD HEM A1501      54.427  81.490  15.449 -0.47 +0.01    +0.032 C 
DOCKED: ATOM     25  NA  HEM A1501      54.471  79.125   9.417 -0.16 -0.20    -0.246 N 
DOCKED: ATOM     26  NB  HEM A1501      55.049  76.358   9.878 +0.06 -0.12    -0.246 N 
DOCKED: ATOM     27  NC  HEM A1501      55.251  76.820  12.732 -0.17 -0.11    -0.246 N 
DOCKED: ATOM     28  ND  HEM A1501      54.561  79.669  12.205 -0.15 -0.18    -0.246 N 
DOCKED: ATOM     29 FE   HEM A1501      54.843  77.999  11.080 -0.07 +0.00    +0.000 Fe
DOCKED: ENDROOT
DOCKED: BRANCH  22  30
DOCKED: ATOM     30  CAD HEM A1501      53.792  83.233  12.999 -0.45 +0.04    +0.039 C 
DOCKED: BRANCH  30  31
DOCKED: ATOM     31  CBD HEM A1501      52.284  83.468  13.084 -0.50 +0.11    +0.102 C 
DOCKED: BRANCH  31  32
DOCKED: ATOM     32  CGD HEM A1501      51.926  84.903  13.419 -0.51 +0.26    +0.186 C 
DOCKED: ATOM     33  O1D HEM A1501      52.913  85.670  13.369 -0.32 -1.30    -0.647 OA
DOCKED: ATOM     34  O2D HEM A1501      50.700  85.286  13.679 -0.99 -0.89    -0.647 OA
DOCKED: ENDBRANCH  31  32
DOCKED: ENDBRANCH  30  31
DOCKED: ENDBRANCH  22  30
DOCKED: BRANCH   6  35
DOCKED: ATOM     35  CAA HEM A1501      53.741  82.222   7.421 -0.44 +0.06    +0.039 C 
DOCKED: BRANCH  35  36
DOCKED: ATOM     36  CBA HEM A1501      52.380  82.293   6.757 -0.57 +0.16    +0.102 C 
DOCKED: BRANCH  36  37
DOCKED: ATOM     37  CGA HEM A1501      52.029  83.648   6.207 -0.62 +0.35    +0.186 C 
DOCKED: ATOM     38  O1A HEM A1501      52.734  84.627   6.544 -1.09 -1.71    -0.647 OA
DOCKED: ATOM     39  O2A HEM A1501      51.079  83.733   5.402 -1.06 -1.33    -0.647 OA
DOCKED: ENDBRANCH  36  37
DOCKED: ENDBRANCH  35  36
DOCKED: ENDBRANCH   6  35
DOCKED: BRANCH  17  40
DOCKED: ATOM     40  CAC HEM A1501      55.960  76.236  16.304 -0.58 +0.00    +0.001 C 
DOCKED: ATOM     41  CBC HEM A1501      55.299  75.565  17.260 -0.67 +0.00    +0.000 C 
DOCKED: ENDBRANCH  17  40
DOCKED: BRANCH  12  42
DOCKED: ATOM     42  CAB HEM A1501      55.604  72.748   9.273 -0.51 +0.00    +0.001 C 
DOCKED: ATOM     43  CBB HEM A1501      54.810  71.716   9.072 -0.57 +0.00    +0.000 C 
DOCKED: ENDBRANCH  12  42
DOCKED: TORSDOF 8
DOCKED: TER
DOCKED: ENDMDL
________________________________________________________________________________


	BEGINNING GENETIC ALGORITHM DOCKING 22 of 100
Run: 22 Seed: 556284653 1556846821 [ Run 22 of 100 GA/GALS ]
Beginning LAMARCKIAN GENETIC ALGORITHM (LGA), with a maximum of 2500000 energy evaluations.

Final-Value: -23.430


	FINAL GENETIC ALGORITHM DOCKED STATE
	_______________________________________________


Detailed state:  trans 54.918 78.772 10.623 quatxyzw -0.159994 0.975688 -0.149664 0.005882 center 54.495 78.699 10.493 ntor 8 128.4021 165.0598 -116.6361 175.1599 13.1561 -1.6509 -176.8541 140.2539
State:	 54.918  78.772  10.623  -0.160  0.976 -0.150 179.326    128.40  165.06 -116.64  175.16   13.16   -1.65 -176.85  140.25

DOCKED: MODEL       22
DOCKED: USER    Run = 22
DOCKED: USER    DPF = C:/Users/georg/Desktop/Dock/executables_autodock_tools/receptor.dpf
DOCKED: USER  
DOCKED: USER    Estimated Free Energy of Binding    =  -20.58 kcal/mol  [=(1)+(2)+(3)-(4)]
DOCKED: USER    Estimated Inhibition Constant, Ki   =  823.53 aM (attomolar)  [Temperature = 298.15 K]
DOCKED: USER    
DOCKED: USER    (1) Final Intermolecular Energy     =  -22.97 kcal/mol
DOCKED: USER        vdW + Hbond + desolv Energy     =  -18.37 kcal/mol
DOCKED: USER        Electrostatic Energy            =   -4.59 kcal/mol
DOCKED: USER    (2) Final Total Internal Energy     =   -0.47 kcal/mol
DOCKED: USER    (3) Torsional Free Energy           =   +2.39 kcal/mol
DOCKED: USER    (4) Unbound System's Energy  [=(2)] =   -0.47 kcal/mol
DOCKED: USER    
DOCKED: USER    
DOCKED: USER    NEWDPF move ligand.pdbqt
DOCKED: USER    NEWDPF about 54.495000 78.699000 10.493000
DOCKED: USER    NEWDPF tran0 54.918306 78.772012 10.623048
DOCKED: USER    NEWDPF quaternion0 -0.159994 0.975688 -0.149664 0.005882
DOCKED: USER    NEWDPF axisangle0 -0.159997 0.975705 -0.149666 179.325922
DOCKED: USER    NEWDPF quat0 -0.159997 0.975705 -0.149666 179.325922
DOCKED: USER    NEWDPF dihe0 128.40 165.06 -116.64 175.16 13.16 -1.65 -176.85 140.25 
DOCKED: USER  keepresnum = 1 
DOCKED: USER  
DOCKED: REMARK  8 active torsions:
DOCKED: REMARK  status: ('A' for Active; 'I' for Inactive)
DOCKED: REMARK    1  A    between atoms: C2A_3624  and  CAA_3628 
DOCKED: REMARK    2  A    between atoms: CAA_3628  and  CBA_3629 
DOCKED: REMARK    3  A    between atoms: CBA_3629  and  CGA_3630 
DOCKED: REMARK    4  A    between atoms: C3B_3635  and  CAB_3638 
DOCKED: REMARK    5  A    between atoms: C3C_3642  and  CAC_3645 
DOCKED: REMARK    6  A    between atoms: C3D_3649  and  CAD_3652 
DOCKED: REMARK    7  A    between atoms: CAD_3652  and  CBD_3653 
DOCKED: REMARK    8  A    between atoms: CBD_3653  and  CGD_3654 
DOCKED: USER                              x       y       z     vdW  Elec       q    Type
DOCKED: USER                           _______ _______ _______ _____ _____    ______ ____
DOCKED: ROOT
DOCKED: ATOM      1  CHA HEM A1501      54.235  81.022  10.336 -0.26 +0.04    +0.038 A 
DOCKED: ATOM      2  CHB HEM A1501      54.399  77.196   7.425 -0.40 +0.03    +0.038 A 
DOCKED: ATOM      3  CHC HEM A1501      55.318  74.334  11.199 -0.40 +0.01    +0.038 A 
DOCKED: ATOM      4  CHD HEM A1501      55.219  78.175  14.106 -0.38 +0.02    +0.038 A 
DOCKED: ATOM      5  C1A HEM A1501      54.225  80.231   9.192 -0.26 +0.08    +0.079 A 
DOCKED: ATOM      6  C2A HEM A1501      54.025  80.684   7.811 -0.35 -0.01    -0.006 A 
DOCKED: ATOM      7  C3A HEM A1501      54.072  79.612   7.034 -0.37 -0.01    -0.007 A 
DOCKED: ATOM      8  C4A HEM A1501      54.309  78.492   7.894 -0.34 +0.06    +0.079 A 
DOCKED: ATOM      9  CMA HEM A1501      53.932  79.560   5.544 -0.45 +0.03    +0.032 C 
DOCKED: ATOM     10  C1B HEM A1501      54.634  76.068   8.190 -0.37 +0.05    +0.079 A 
DOCKED: ATOM     11  C2B HEM A1501      54.701  74.716   7.649 -0.47 -0.00    -0.003 A 
DOCKED: ATOM     12  C3B HEM A1501      54.944  73.914   8.717 -0.45 +0.01    +0.015 A 
DOCKED: ATOM     13  C4B HEM A1501      55.048  74.775   9.892 -0.37 +0.03    +0.083 A 
DOCKED: ATOM     14  CMB HEM A1501      54.520  74.362   6.198 -0.59 +0.02    +0.033 C 
DOCKED: ATOM     15  C1C HEM A1501      55.414  75.082  12.341 -0.35 +0.03    +0.079 A 
DOCKED: ATOM     16  C2C HEM A1501      55.776  74.578  13.637 -0.42 -0.00    -0.003 A 
DOCKED: ATOM     17  C3C HEM A1501      55.772  75.648  14.474 -0.38 +0.01    +0.015 A 
DOCKED: ATOM     18  C4C HEM A1501      55.390  76.820  13.662 -0.31 +0.03    +0.083 A 
DOCKED: ATOM     19  CMC HEM A1501      56.085  73.121  13.916 -0.54 +0.01    +0.033 C 
DOCKED: ATOM     20  C1D HEM A1501      54.879  79.320  13.345 -0.31 +0.04    +0.079 A 
DOCKED: ATOM     21  C2D HEM A1501      54.734  80.643  13.871 -0.38 -0.00    -0.007 A 
DOCKED: ATOM     22  C3D HEM A1501      54.456  81.448  12.814 -0.32 -0.00    -0.006 A 
DOCKED: ATOM     23  C4D HEM A1501      54.438  80.611  11.630 -0.22 +0.07    +0.079 A 
DOCKED: ATOM     24  CMD HEM A1501      54.865  81.051  15.285 -0.44 +0.01    +0.032 C 
DOCKED: ATOM     25  NA  HEM A1501      54.428  78.876   9.197 -0.18 -0.20    -0.246 N 
DOCKED: ATOM     26  NB  HEM A1501      54.834  76.063   9.550 -0.09 -0.12    -0.246 N 
DOCKED: ATOM     27  NC  HEM A1501      55.218  76.422  12.400 -0.14 -0.11    -0.246 N 
DOCKED: ATOM     28  ND  HEM A1501      54.701  79.327  11.989 -0.11 -0.17    -0.246 N 
DOCKED: ATOM     29 FE   HEM A1501      54.806  77.677  10.805 -0.07 +0.00    +0.000 Fe
DOCKED: ENDROOT
DOCKED: BRANCH  22  30
DOCKED: ATOM     30  CAD HEM A1501      54.226  82.909  12.921 -0.38 +0.04    +0.039 C 
DOCKED: BRANCH  30  31
DOCKED: ATOM     31  CBD HEM A1501      52.745  83.243  13.092 -0.51 +0.11    +0.102 C 
DOCKED: BRANCH  31  32
DOCKED: ATOM     32  CGD HEM A1501      52.434  84.706  12.839 -0.41 +0.28    +0.186 C 
DOCKED: ATOM     33  O1D HEM A1501      53.252  85.244  12.061 -0.52 -1.52    -0.647 OA
DOCKED: ATOM     34  O2D HEM A1501      51.389  85.308  13.351 -0.64 -0.99    -0.647 OA
DOCKED: ENDBRANCH  31  32
DOCKED: ENDBRANCH  30  31
DOCKED: ENDBRANCH  22  30
DOCKED: BRANCH   6  35
DOCKED: ATOM     35  CAA HEM A1501      53.812  82.076   7.329 -0.44 +0.06    +0.039 C 
DOCKED: BRANCH  35  36
DOCKED: ATOM     36  CBA HEM A1501      52.498  82.217   6.585 -0.57 +0.15    +0.102 C 
DOCKED: BRANCH  36  37
DOCKED: ATOM     37  CGA HEM A1501      52.160  83.627   6.187 -0.64 +0.35    +0.186 C 
DOCKED: ATOM     38  O1A HEM A1501      52.927  84.548   6.552 -1.19 -1.71    -0.647 OA
DOCKED: ATOM     39  O2A HEM A1501      51.155  83.817   5.471 -1.04 -1.32    -0.647 OA
DOCKED: ENDBRANCH  36  37
DOCKED: ENDBRANCH  35  36
DOCKED: ENDBRANCH   6  35
DOCKED: BRANCH  17  40
DOCKED: ATOM     40  CAC HEM A1501      56.070  75.680  15.911 -0.55 +0.00    +0.001 C 
DOCKED: ATOM     41  CBC HEM A1501      55.207  75.939  16.905 -0.64 +0.00    +0.000 C 
DOCKED: ENDBRANCH  17  40
DOCKED: BRANCH  12  42
DOCKED: ATOM     42  CAB HEM A1501      55.104  72.445   8.817 -0.56 +0.00    +0.001 C 
DOCKED: ATOM     43  CBB HEM A1501      55.926  71.722   9.551 -0.55 +0.00    +0.000 C 
DOCKED: ENDBRANCH  12  42
DOCKED: TORSDOF 8
DOCKED: TER
DOCKED: ENDMDL
________________________________________________________________________________


	BEGINNING GENETIC ALGORITHM DOCKING 23 of 100
Run: 23 Seed: 1900515505 974644536 [ Run 23 of 100 GA/GALS ]
Beginning LAMARCKIAN GENETIC ALGORITHM (LGA), with a maximum of 2500000 energy evaluations.

Final-Value: -22.857


	FINAL GENETIC ALGORITHM DOCKED STATE
	_______________________________________________


Detailed state:  trans 54.313 78.827 10.657 quatxyzw -0.016882 -0.007434 -0.010989 0.999769 center 54.495 78.699 10.493 ntor 8 20.5580 -15.5757 -113.3636 -180.0000 -16.8727 31.1202 -48.2187 15.3953
State:	 54.313  78.827  10.657  -0.786 -0.346 -0.512  2.461     20.56  -15.58 -113.36 -180.00  -16.87   31.12  -48.22   15.40

DOCKED: MODEL       23
DOCKED: USER    Run = 23
DOCKED: USER    DPF = C:/Users/georg/Desktop/Dock/executables_autodock_tools/receptor.dpf
DOCKED: USER  
DOCKED: USER    Estimated Free Energy of Binding    =  -20.32 kcal/mol  [=(1)+(2)+(3)-(4)]
DOCKED: USER    Estimated Inhibition Constant, Ki   =    1.26 fM (femtomolar)  [Temperature = 298.15 K]
DOCKED: USER    
DOCKED: USER    (1) Final Intermolecular Energy     =  -22.71 kcal/mol
DOCKED: USER        vdW + Hbond + desolv Energy     =  -18.50 kcal/mol
DOCKED: USER        Electrostatic Energy            =   -4.22 kcal/mol
DOCKED: USER    (2) Final Total Internal Energy     =   -0.15 kcal/mol
DOCKED: USER    (3) Torsional Free Energy           =   +2.39 kcal/mol
DOCKED: USER    (4) Unbound System's Energy  [=(2)] =   -0.15 kcal/mol
DOCKED: USER    
DOCKED: USER    
DOCKED: USER    NEWDPF move ligand.pdbqt
DOCKED: USER    NEWDPF about 54.495000 78.699000 10.493000
DOCKED: USER    NEWDPF tran0 54.312979 78.826843 10.656772
DOCKED: USER    NEWDPF quaternion0 -0.016882 -0.007434 -0.010989 0.999769
DOCKED: USER    NEWDPF axisangle0 -0.786264 -0.346208 -0.511790 2.460642
DOCKED: USER    NEWDPF quat0 -0.786264 -0.346208 -0.511790 2.460642
DOCKED: USER    NEWDPF dihe0 20.56 -15.58 -113.36 -180.00 -16.87 31.12 -48.22 15.40 
DOCKED: USER  keepresnum = 1 
DOCKED: USER  
DOCKED: REMARK  8 active torsions:
DOCKED: REMARK  status: ('A' for Active; 'I' for Inactive)
DOCKED: REMARK    1  A    between atoms: C2A_3624  and  CAA_3628 
DOCKED: REMARK    2  A    between atoms: CAA_3628  and  CBA_3629 
DOCKED: REMARK    3  A    between atoms: CBA_3629  and  CGA_3630 
DOCKED: REMARK    4  A    between atoms: C3B_3635  and  CAB_3638 
DOCKED: REMARK    5  A    between atoms: C3C_3642  and  CAC_3645 
DOCKED: REMARK    6  A    between atoms: C3D_3649  and  CAD_3652 
DOCKED: REMARK    7  A    between atoms: CAD_3652  and  CBD_3653 
DOCKED: REMARK    8  A    between atoms: CBD_3653  and  CGD_3654 
DOCKED: USER                              x       y       z     vdW  Elec       q    Type
DOCKED: USER                           _______ _______ _______ _____ _____    ______ ____
DOCKED: ROOT
DOCKED: ATOM      1  CHA HEM A1501      54.189  81.169  10.325 -0.28 +0.04    +0.038 A 
DOCKED: ATOM      2  CHB HEM A1501      55.165  78.393  14.131 -0.38 +0.02    +0.038 A 
DOCKED: ATOM      3  CHC HEM A1501      55.451  74.522  11.264 -0.40 +0.01    +0.038 A 
DOCKED: ATOM      4  CHD HEM A1501      54.408  77.291   7.462 -0.40 +0.03    +0.038 A 
DOCKED: ATOM      5  C1A HEM A1501      54.404  80.749  11.634 -0.23 +0.07    +0.079 A 
DOCKED: ATOM      6  C2A HEM A1501      54.370  81.581  12.841 -0.33 -0.00    -0.006 A 
DOCKED: ATOM      7  C3A HEM A1501      54.645  80.793  13.870 -0.38 -0.00    -0.007 A 
DOCKED: ATOM      8  C4A HEM A1501      54.841  79.478  13.339 -0.31 +0.05    +0.079 A 
DOCKED: ATOM      9  CMA HEM A1501      54.717  81.175  15.317 -0.46 +0.01    +0.032 C 
DOCKED: ATOM     10  C1B HEM A1501      55.361  77.096  13.693 -0.32 +0.03    +0.079 A 
DOCKED: ATOM     11  C2B HEM A1501      55.722  75.987  14.568 -0.39 -0.00    -0.003 A 
DOCKED: ATOM     12  C3B HEM A1501      55.817  74.904  13.753 -0.41 +0.01    +0.015 A 
DOCKED: ATOM     13  C4B HEM A1501      55.490  75.348  12.401 -0.33 +0.03    +0.083 A 
DOCKED: ATOM     14  CMB HEM A1501      55.936  76.099  16.052 -0.53 +0.01    +0.033 C 
DOCKED: ATOM     15  C1C HEM A1501      55.168  74.875   9.973 -0.37 +0.03    +0.079 A 
DOCKED: ATOM     16  C2C HEM A1501      55.062  73.965   8.866 -0.46 -0.00    -0.003 A 
DOCKED: ATOM     17  C3C HEM A1501      54.752  74.721   7.781 -0.46 +0.01    +0.015 A 
DOCKED: ATOM     18  C4C HEM A1501      54.677  76.119   8.247 -0.36 +0.05    +0.083 A 
DOCKED: ATOM     19  CMC HEM A1501      55.273  72.469   8.985 -0.53 +0.01    +0.033 C 
DOCKED: ATOM     20  C1D HEM A1501      54.306  78.639   7.887 -0.33 +0.06    +0.079 A 
DOCKED: ATOM     21  C2D HEM A1501      54.027  79.751   7.031 -0.37 -0.01    -0.007 A 
DOCKED: ATOM     22  C3D HEM A1501      53.965  80.846   7.832 -0.36 -0.01    -0.006 A 
DOCKED: ATOM     23  C4D HEM A1501      54.202  80.396   9.190 -0.26 +0.08    +0.079 A 
DOCKED: ATOM     24  CMD HEM A1501      53.839  79.714   5.566 -0.46 +0.03    +0.032 C 
DOCKED: ATOM     25  NA  HEM A1501      54.666  79.452  11.987 -0.12 -0.17    -0.246 N 
DOCKED: ATOM     26  NB  HEM A1501      55.243  76.676  12.390 -0.12 -0.11    -0.246 N 
DOCKED: ATOM     27  NC  HEM A1501      54.908  76.141   9.561 -0.09 -0.12    -0.246 N 
DOCKED: ATOM     28  ND  HEM A1501      54.402  79.052   9.186 -0.18 -0.20    -0.246 N 
DOCKED: ATOM     29 FE   HEM A1501      54.794  77.825  10.760 -0.07 +0.00    +0.000 Fe
DOCKED: ENDROOT
DOCKED: BRANCH  22  30
DOCKED: ATOM     30  CAD HEM A1501      53.698  82.219   7.342 -0.45 +0.06    +0.039 C 
DOCKED: BRANCH  30  31
DOCKED: ATOM     31  CBD HEM A1501      52.696  82.229   6.188 -0.57 +0.14    +0.102 C 
DOCKED: BRANCH  31  32
DOCKED: ATOM     32  CGD HEM A1501      52.134  83.609   5.904 -0.64 +0.34    +0.186 C 
DOCKED: ATOM     33  O1D HEM A1501      52.939  84.524   6.184 -1.19 -1.58    -0.647 OA
DOCKED: ATOM     34  O2D HEM A1501      50.950  83.797   5.374 -1.02 -1.37    -0.647 OA
DOCKED: ENDBRANCH  31  32
DOCKED: ENDBRANCH  30  31
DOCKED: ENDBRANCH  22  30
DOCKED: BRANCH   6  35
DOCKED: ATOM     35  CAA HEM A1501      54.080  83.038  12.938 -0.40 +0.04    +0.039 C 
DOCKED: BRANCH  35  36
DOCKED: ATOM     36  CBA HEM A1501      52.786  83.303  13.682 -0.47 +0.10    +0.102 C 
DOCKED: BRANCH  36  37
DOCKED: ATOM     37  CGA HEM A1501      52.100  84.585  13.295 -0.51 +0.25    +0.186 C 
DOCKED: ATOM     38  O1A HEM A1501      52.624  85.293  12.404 -0.58 -1.31    -0.647 OA
DOCKED: ATOM     39  O2A HEM A1501      51.015  84.866  13.844 -0.49 -0.84    -0.647 OA
DOCKED: ENDBRANCH  36  37
DOCKED: ENDBRANCH  35  36
DOCKED: ENDBRANCH   6  35
DOCKED: BRANCH  17  40
DOCKED: ATOM     40  CAC HEM A1501      54.533  74.281   6.398 -0.61 +0.00    +0.001 C 
DOCKED: ATOM     41  CBC HEM A1501      53.595  74.732   5.550 -0.65 +0.00    +0.000 C 
DOCKED: ENDBRANCH  17  40
DOCKED: BRANCH  12  42
DOCKED: ATOM     42  CAB HEM A1501      56.162  73.494  14.044 -0.57 +0.00    +0.001 C 
DOCKED: ATOM     43  CBB HEM A1501      57.063  72.986  14.861 -0.64 +0.00    +0.000 C 
DOCKED: ENDBRANCH  12  42
DOCKED: TORSDOF 8
DOCKED: TER
DOCKED: ENDMDL
________________________________________________________________________________


	BEGINNING GENETIC ALGORITHM DOCKING 24 of 100
Run: 24 Seed: 255647776 455965016 [ Run 24 of 100 GA/GALS ]
Beginning LAMARCKIAN GENETIC ALGORITHM (LGA), with a maximum of 2500000 energy evaluations.

Final-Value: -23.103


	FINAL GENETIC ALGORITHM DOCKED STATE
	_______________________________________________


Detailed state:  trans 54.416 78.593 10.399 quatxyzw -0.006881 -0.003975 -0.002527 -0.999965 center 54.495 78.699 10.493 ntor 8 18.5696 -25.5705 149.0046 -170.0802 14.9363 20.9169 21.4232 12.3258
State:	 54.416  78.593  10.399  -0.825 -0.477 -0.303 -0.956     18.57  -25.57  149.00 -170.08   14.94   20.92   21.42   12.33

DOCKED: MODEL       24
DOCKED: USER    Run = 24
DOCKED: USER    DPF = C:/Users/georg/Desktop/Dock/executables_autodock_tools/receptor.dpf
DOCKED: USER  
DOCKED: USER    Estimated Free Energy of Binding    =  -20.20 kcal/mol  [=(1)+(2)+(3)-(4)]
DOCKED: USER    Estimated Inhibition Constant, Ki   =    1.56 fM (femtomolar)  [Temperature = 298.15 K]
DOCKED: USER    
DOCKED: USER    (1) Final Intermolecular Energy     =  -22.59 kcal/mol
DOCKED: USER        vdW + Hbond + desolv Energy     =  -18.16 kcal/mol
DOCKED: USER        Electrostatic Energy            =   -4.42 kcal/mol
DOCKED: USER    (2) Final Total Internal Energy     =   -0.52 kcal/mol
DOCKED: USER    (3) Torsional Free Energy           =   +2.39 kcal/mol
DOCKED: USER    (4) Unbound System's Energy  [=(2)] =   -0.52 kcal/mol
DOCKED: USER    
DOCKED: USER    
DOCKED: USER    NEWDPF move ligand.pdbqt
DOCKED: USER    NEWDPF about 54.495000 78.699000 10.493000
DOCKED: USER    NEWDPF tran0 54.416236 78.593174 10.398550
DOCKED: USER    NEWDPF quaternion0 -0.006881 -0.003975 -0.002527 -0.999965
DOCKED: USER    NEWDPF axisangle0 -0.825173 -0.476724 -0.303026 -0.955520
DOCKED: USER    NEWDPF quat0 -0.825173 -0.476724 -0.303026 -0.955520
DOCKED: USER    NEWDPF dihe0 18.57 -25.57 149.00 -170.08 14.94 20.92 21.42 12.33 
DOCKED: USER  keepresnum = 1 
DOCKED: USER  
DOCKED: REMARK  8 active torsions:
DOCKED: REMARK  status: ('A' for Active; 'I' for Inactive)
DOCKED: REMARK    1  A    between atoms: C2A_3624  and  CAA_3628 
DOCKED: REMARK    2  A    between atoms: CAA_3628  and  CBA_3629 
DOCKED: REMARK    3  A    between atoms: CBA_3629  and  CGA_3630 
DOCKED: REMARK    4  A    between atoms: C3B_3635  and  CAB_3638 
DOCKED: REMARK    5  A    between atoms: C3C_3642  and  CAC_3645 
DOCKED: REMARK    6  A    between atoms: C3D_3649  and  CAD_3652 
DOCKED: REMARK    7  A    between atoms: CAD_3652  and  CBD_3653 
DOCKED: REMARK    8  A    between atoms: CBD_3653  and  CGD_3654 
DOCKED: USER                              x       y       z     vdW  Elec       q    Type
DOCKED: USER                           _______ _______ _______ _____ _____    ______ ____
DOCKED: ROOT
DOCKED: ATOM      1  CHA HEM A1501      54.364  80.920   9.954 -0.27 +0.04    +0.038 A 
DOCKED: ATOM      2  CHB HEM A1501      55.179  78.303  13.908 -0.37 +0.02    +0.038 A 
DOCKED: ATOM      3  CHC HEM A1501      55.421  74.294  11.235 -0.40 +0.01    +0.038 A 
DOCKED: ATOM      4  CHD HEM A1501      54.540  76.905   7.282 -0.40 +0.03    +0.038 A 
DOCKED: ATOM      5  C1A HEM A1501      54.539  80.557  11.286 -0.20 +0.07    +0.079 A 
DOCKED: ATOM      6  C2A HEM A1501      54.501  81.446  12.451 -0.30 -0.00    -0.006 A 
DOCKED: ATOM      7  C3A HEM A1501      54.731  80.701  13.522 -0.35 -0.00    -0.007 A 
DOCKED: ATOM      8  C4A HEM A1501      54.902  79.357  13.059 -0.28 +0.05    +0.079 A 
DOCKED: ATOM      9  CMA HEM A1501      54.782  81.150  14.951 -0.46 +0.02    +0.032 C 
DOCKED: ATOM     10  C1B HEM A1501      55.348  76.982  13.537 -0.31 +0.03    +0.079 A 
DOCKED: ATOM     11  C2B HEM A1501      55.659  75.907  14.471 -0.39 -0.00    -0.003 A 
DOCKED: ATOM     12  C3B HEM A1501      55.742  74.785  13.711 -0.40 +0.01    +0.015 A 
DOCKED: ATOM     13  C4B HEM A1501      55.458  75.172  12.332 -0.34 +0.03    +0.083 A 
DOCKED: ATOM     14  CMB HEM A1501      55.843  76.084  15.953 -0.53 +0.01    +0.033 C 
DOCKED: ATOM     15  C1C HEM A1501      55.177  74.592   9.922 -0.38 +0.03    +0.079 A 
DOCKED: ATOM     16  C2C HEM A1501      55.071  73.633   8.857 -0.47 -0.00    -0.003 A 
DOCKED: ATOM     17  C3C HEM A1501      54.805  74.344   7.731 -0.46 +0.01    +0.015 A 
DOCKED: ATOM     18  C4C HEM A1501      54.759  75.765   8.128 -0.37 +0.05    +0.083 A 
DOCKED: ATOM     19  CMC HEM A1501      55.238  72.140   9.052 -0.54 +0.01    +0.033 C 
DOCKED: ATOM     20  C1D HEM A1501      54.466  78.273   7.641 -0.33 +0.06    +0.079 A 
DOCKED: ATOM     21  C2D HEM A1501      54.236  79.351   6.727 -0.37 -0.01    -0.007 A 
DOCKED: ATOM     22  C3D HEM A1501      54.187  80.483   7.474 -0.34 -0.01    -0.006 A 
DOCKED: ATOM     23  C4D HEM A1501      54.381  80.093   8.857 -0.26 +0.07    +0.079 A 
DOCKED: ATOM     24  CMD HEM A1501      54.081  79.248   5.262 -0.48 +0.03    +0.032 C 
DOCKED: ATOM     25  NA  HEM A1501      54.757  79.271  11.706 -0.10 -0.17    -0.246 N 
DOCKED: ATOM     26  NB  HEM A1501      55.248  76.503  12.252 -0.11 -0.11    -0.246 N 
DOCKED: ATOM     27  NC  HEM A1501      54.961  75.843   9.445 -0.19 -0.12    -0.246 N 
DOCKED: ATOM     28  ND  HEM A1501      54.544  78.745   8.921 -0.19 -0.19    -0.246 N 
DOCKED: ATOM     29 FE   HEM A1501      54.867  77.585  10.560 -0.07 +0.00    +0.000 Fe
DOCKED: ENDROOT
DOCKED: BRANCH  22  30
DOCKED: ATOM     30  CAD HEM A1501      53.969  81.838   6.914 -0.43 +0.05    +0.039 C 
DOCKED: BRANCH  30  31
DOCKED: ATOM     31  CBD HEM A1501      52.560  82.356   7.202 -0.55 +0.16    +0.102 C 
DOCKED: BRANCH  31  32
DOCKED: ATOM     32  CGD HEM A1501      52.167  83.525   6.319 -0.62 +0.35    +0.186 C 
DOCKED: ATOM     33  O1D HEM A1501      52.829  84.557   6.564 -1.16 -1.70    -0.647 OA
DOCKED: ATOM     34  O2D HEM A1501      51.265  83.428   5.374 -1.07 -1.24    -0.647 OA
DOCKED: ENDBRANCH  31  32
DOCKED: ENDBRANCH  30  31
DOCKED: ENDBRANCH  22  30
DOCKED: BRANCH   6  35
DOCKED: ATOM     35  CAA HEM A1501      54.249  82.913  12.473 -0.37 +0.04    +0.039 C 
DOCKED: BRANCH  35  36
DOCKED: ATOM     36  CBA HEM A1501      52.912  83.243  13.106 -0.50 +0.11    +0.102 C 
DOCKED: BRANCH  36  37
DOCKED: ATOM     37  CGA HEM A1501      52.411  84.630  12.810 -0.42 +0.27    +0.186 C 
DOCKED: ATOM     38  O1A HEM A1501      52.999  85.298  11.928 -0.44 -1.51    -0.647 OA
DOCKED: ATOM     39  O2A HEM A1501      51.403  85.040  13.422 -0.44 -0.91    -0.647 OA
DOCKED: ENDBRANCH  36  37
DOCKED: ENDBRANCH  35  36
DOCKED: ENDBRANCH   6  35
DOCKED: BRANCH  17  40
DOCKED: ATOM     40  CAC HEM A1501      54.606  73.845   6.365 -0.60 +0.00    +0.001 C 
DOCKED: ATOM     41  CBC HEM A1501      53.676  74.254   5.488 -0.66 +0.00    +0.000 C 
DOCKED: ENDBRANCH  17  40
DOCKED: BRANCH  12  42
DOCKED: ATOM     42  CAB HEM A1501      56.042  73.381  14.076 -0.57 +0.00    +0.001 C 
DOCKED: ATOM     43  CBB HEM A1501      57.020  72.877  14.801 -0.65 +0.00    +0.000 C 
DOCKED: ENDBRANCH  12  42
DOCKED: TORSDOF 8
DOCKED: TER
DOCKED: ENDMDL
________________________________________________________________________________


	BEGINNING GENETIC ALGORITHM DOCKING 25 of 100
Run: 25 Seed: 1271371549 1774138784 [ Run 25 of 100 GA/GALS ]
Beginning LAMARCKIAN GENETIC ALGORITHM (LGA), with a maximum of 2500000 energy evaluations.

Final-Value: -23.227


	FINAL GENETIC ALGORITHM DOCKED STATE
	_______________________________________________


Detailed state:  trans 54.875 78.933 10.438 quatxyzw -0.185651 0.962382 -0.197029 -0.023111 center 54.495 78.699 10.493 ntor 8 180.0000 19.0397 -146.6887 130.3285 -29.3819 4.5037 -161.2146 -178.9388
State:	 54.875  78.933  10.438  -0.186  0.963 -0.197 -177.351    180.00   19.04 -146.69  130.33  -29.38    4.50 -161.21 -178.94

DOCKED: MODEL       25
DOCKED: USER    Run = 25
DOCKED: USER    DPF = C:/Users/georg/Desktop/Dock/executables_autodock_tools/receptor.dpf
DOCKED: USER  
DOCKED: USER    Estimated Free Energy of Binding    =  -20.27 kcal/mol  [=(1)+(2)+(3)-(4)]
DOCKED: USER    Estimated Inhibition Constant, Ki   =    1.38 fM (femtomolar)  [Temperature = 298.15 K]
DOCKED: USER    
DOCKED: USER    (1) Final Intermolecular Energy     =  -22.66 kcal/mol
DOCKED: USER        vdW + Hbond + desolv Energy     =  -18.54 kcal/mol
DOCKED: USER        Electrostatic Energy            =   -4.12 kcal/mol
DOCKED: USER    (2) Final Total Internal Energy     =   -0.57 kcal/mol
DOCKED: USER    (3) Torsional Free Energy           =   +2.39 kcal/mol
DOCKED: USER    (4) Unbound System's Energy  [=(2)] =   -0.57 kcal/mol
DOCKED: USER    
DOCKED: USER    
DOCKED: USER    NEWDPF move ligand.pdbqt
DOCKED: USER    NEWDPF about 54.495000 78.699000 10.493000
DOCKED: USER    NEWDPF tran0 54.875271 78.933439 10.437950
DOCKED: USER    NEWDPF quaternion0 -0.185651 0.962382 -0.197029 -0.023111
DOCKED: USER    NEWDPF axisangle0 -0.185701 0.962639 -0.197082 -177.351427
DOCKED: USER    NEWDPF quat0 -0.185701 0.962639 -0.197082 -177.351427
DOCKED: USER    NEWDPF dihe0 180.00 19.04 -146.69 130.33 -29.38 4.50 -161.21 -178.94 
DOCKED: USER  keepresnum = 1 
DOCKED: USER  
DOCKED: REMARK  8 active torsions:
DOCKED: REMARK  status: ('A' for Active; 'I' for Inactive)
DOCKED: REMARK    1  A    between atoms: C2A_3624  and  CAA_3628 
DOCKED: REMARK    2  A    between atoms: CAA_3628  and  CBA_3629 
DOCKED: REMARK    3  A    between atoms: CBA_3629  and  CGA_3630 
DOCKED: REMARK    4  A    between atoms: C3B_3635  and  CAB_3638 
DOCKED: REMARK    5  A    between atoms: C3C_3642  and  CAC_3645 
DOCKED: REMARK    6  A    between atoms: C3D_3649  and  CAD_3652 
DOCKED: REMARK    7  A    between atoms: CAD_3652  and  CBD_3653 
DOCKED: REMARK    8  A    between atoms: CBD_3653  and  CGD_3654 
DOCKED: USER                              x       y       z     vdW  Elec       q    Type
DOCKED: USER                           _______ _______ _______ _____ _____    ______ ____
DOCKED: ROOT
DOCKED: ATOM      1  CHA HEM A1501      54.077  81.101   9.911 -0.29 +0.04    +0.038 A 
DOCKED: ATOM      2  CHB HEM A1501      54.667  77.061   7.367 -0.38 +0.03    +0.038 A 
DOCKED: ATOM      3  CHC HEM A1501      55.504  74.596  11.429 -0.40 +0.01    +0.038 A 
DOCKED: ATOM      4  CHD HEM A1501      54.979  78.654  13.972 -0.39 +0.02    +0.038 A 
DOCKED: ATOM      5  C1A HEM A1501      54.191  80.217   8.843 -0.28 +0.08    +0.079 A 
DOCKED: ATOM      6  C2A HEM A1501      54.057  80.537   7.418 -0.36 -0.01    -0.006 A 
DOCKED: ATOM      7  C3A HEM A1501      54.220  79.408   6.744 -0.37 -0.01    -0.007 A 
DOCKED: ATOM      8  C4A HEM A1501      54.467  78.384   7.712 -0.33 +0.06    +0.079 A 
DOCKED: ATOM      9  CMA HEM A1501      54.184  79.222   5.258 -0.49 +0.03    +0.032 C 
DOCKED: ATOM     10  C1B HEM A1501      54.918  76.021   8.242 -0.35 +0.04    +0.079 A 
DOCKED: ATOM     11  C2B HEM A1501      55.102  74.635   7.827 -0.46 -0.00    -0.003 A 
DOCKED: ATOM     12  C3B HEM A1501      55.322  73.944   8.976 -0.45 +0.01    +0.015 A 
DOCKED: ATOM     13  C4B HEM A1501      55.296  74.906  10.073 -0.36 +0.03    +0.083 A 
DOCKED: ATOM     14  CMB HEM A1501      55.041  74.148   6.406 -0.57 +0.02    +0.033 C 
DOCKED: ATOM     15  C1C HEM A1501      55.479  75.443  12.503 -0.33 +0.03    +0.079 A 
DOCKED: ATOM     16  C2C HEM A1501      55.783  75.076  13.859 -0.40 -0.00    -0.003 A 
DOCKED: ATOM     17  C3C HEM A1501      55.658  76.209  14.596 -0.39 +0.01    +0.015 A 
DOCKED: ATOM     18  C4C HEM A1501      55.261  77.281  13.662 -0.32 +0.04    +0.083 A 
DOCKED: ATOM     19  CMC HEM A1501      56.161  73.671  14.284 -0.54 +0.01    +0.033 C 
DOCKED: ATOM     20  C1D HEM A1501      54.622  79.706  13.093 -0.30 +0.05    +0.079 A 
DOCKED: ATOM     21  C2D HEM A1501      54.362  81.056  13.490 -0.38 -0.00    -0.007 A 
DOCKED: ATOM     22  C3D HEM A1501      54.107  81.749  12.350 -0.35 -0.01    -0.006 A 
DOCKED: ATOM     23  C4D HEM A1501      54.218  80.815  11.247 -0.21 +0.07    +0.079 A 
DOCKED: ATOM     24  CMD HEM A1501      54.374  81.590  14.867 -0.46 +0.02    +0.032 C 
DOCKED: ATOM     25  NA  HEM A1501      54.476  78.884   8.981 -0.19 -0.20    -0.246 N 
DOCKED: ATOM     26  NB  HEM A1501      55.027  76.144   9.606 -0.11 -0.12    -0.246 N 
DOCKED: ATOM     27  NC  HEM A1501      55.198  76.767  12.432 -0.11 -0.11    -0.246 N 
DOCKED: ATOM     28  ND  HEM A1501      54.534  79.586  11.734 -0.10 -0.18    -0.246 N 
DOCKED: ATOM     29 FE   HEM A1501      54.818  77.852  10.709 -0.07 +0.00    +0.000 Fe
DOCKED: ENDROOT
DOCKED: BRANCH  22  30
DOCKED: ATOM     30  CAD HEM A1501      53.782  83.195  12.314 -0.42 +0.05    +0.039 C 
DOCKED: BRANCH  30  31
DOCKED: ATOM     31  CBD HEM A1501      52.341  83.468  12.743 -0.43 +0.12    +0.102 C 
DOCKED: BRANCH  31  32
DOCKED: ATOM     32  CGD HEM A1501      52.153  84.848  13.345 -0.49 +0.27    +0.186 C 
DOCKED: ATOM     33  O1D HEM A1501      53.228  85.481  13.441 -0.47 -1.16    -0.647 OA
DOCKED: ATOM     34  O2D HEM A1501      50.978  85.325  13.673 -0.86 -0.92    -0.647 OA
DOCKED: ENDBRANCH  31  32
DOCKED: ENDBRANCH  30  31
DOCKED: ENDBRANCH  22  30
DOCKED: BRANCH   6  35
DOCKED: ATOM     35  CAA HEM A1501      53.792  81.866   6.802 -0.46 +0.05    +0.039 C 
DOCKED: BRANCH  35  36
DOCKED: ATOM     36  CBA HEM A1501      52.321  82.227   6.857 -0.57 +0.16    +0.102 C 
DOCKED: BRANCH  36  37
DOCKED: ATOM     37  CGA HEM A1501      51.985  83.556   6.238 -0.61 +0.35    +0.186 C 
DOCKED: ATOM     38  O1A HEM A1501      52.675  84.552   6.558 -1.13 -1.66    -0.647 OA
DOCKED: ATOM     39  O2A HEM A1501      51.064  83.603   5.397 -1.06 -1.32    -0.647 OA
DOCKED: ENDBRANCH  36  37
DOCKED: ENDBRANCH  35  36
DOCKED: ENDBRANCH   6  35
DOCKED: BRANCH  17  40
DOCKED: ATOM     40  CAC HEM A1501      55.858  76.383  16.040 -0.56 +0.00    +0.001 C 
DOCKED: ATOM     41  CBC HEM A1501      55.180  75.773  17.024 -0.65 +0.00    +0.000 C 
DOCKED: ENDBRANCH  17  40
DOCKED: BRANCH  12  42
DOCKED: ATOM     42  CAB HEM A1501      55.564  72.502   9.214 -0.54 +0.00    +0.001 C 
DOCKED: ATOM     43  CBB HEM A1501      55.550  71.484   8.378 -0.56 +0.00    +0.000 C 
DOCKED: ENDBRANCH  12  42
DOCKED: TORSDOF 8
DOCKED: TER
DOCKED: ENDMDL
________________________________________________________________________________


	BEGINNING GENETIC ALGORITHM DOCKING 26 of 100
Run: 26 Seed: 1712045850 751309956 [ Run 26 of 100 GA/GALS ]
Beginning LAMARCKIAN GENETIC ALGORITHM (LGA), with a maximum of 2500000 energy evaluations.

Final-Value: -23.376


	FINAL GENETIC ALGORITHM DOCKED STATE
	_______________________________________________


Detailed state:  trans 54.906 79.052 10.733 quatxyzw 0.182523 -0.968831 0.164767 0.030049 center 54.495 78.699 10.493 ntor 8 -179.9605 -59.4412 -146.1177 -20.6280 -10.1538 15.4028 -165.8402 160.1768
State:	 54.906  79.052  10.733   0.183 -0.969  0.165 176.556   -179.96  -59.44 -146.12  -20.63  -10.15   15.40 -165.84  160.18

DOCKED: MODEL       26
DOCKED: USER    Run = 26
DOCKED: USER    DPF = C:/Users/georg/Desktop/Dock/executables_autodock_tools/receptor.dpf
DOCKED: USER  
DOCKED: USER    Estimated Free Energy of Binding    =  -20.40 kcal/mol  [=(1)+(2)+(3)-(4)]
DOCKED: USER    Estimated Inhibition Constant, Ki   =    1.11 fM (femtomolar)  [Temperature = 298.15 K]
DOCKED: USER    
DOCKED: USER    (1) Final Intermolecular Energy     =  -22.79 kcal/mol
DOCKED: USER        vdW + Hbond + desolv Energy     =  -18.60 kcal/mol
DOCKED: USER        Electrostatic Energy            =   -4.19 kcal/mol
DOCKED: USER    (2) Final Total Internal Energy     =   -0.59 kcal/mol
DOCKED: USER    (3) Torsional Free Energy           =   +2.39 kcal/mol
DOCKED: USER    (4) Unbound System's Energy  [=(2)] =   -0.59 kcal/mol
DOCKED: USER    
DOCKED: USER    
DOCKED: USER    NEWDPF move ligand.pdbqt
DOCKED: USER    NEWDPF about 54.495000 78.699000 10.493000
DOCKED: USER    NEWDPF tran0 54.905954 79.051781 10.733171
DOCKED: USER    NEWDPF quaternion0 0.182523 -0.968831 0.164767 0.030049
DOCKED: USER    NEWDPF axisangle0 0.182606 -0.969269 0.164841 176.556101
DOCKED: USER    NEWDPF quat0 0.182606 -0.969269 0.164841 176.556101
DOCKED: USER    NEWDPF dihe0 -179.96 -59.44 -146.12 -20.63 -10.15 15.40 -165.84 160.18 
DOCKED: USER  keepresnum = 1 
DOCKED: USER  
DOCKED: REMARK  8 active torsions:
DOCKED: REMARK  status: ('A' for Active; 'I' for Inactive)
DOCKED: REMARK    1  A    between atoms: C2A_3624  and  CAA_3628 
DOCKED: REMARK    2  A    between atoms: CAA_3628  and  CBA_3629 
DOCKED: REMARK    3  A    between atoms: CBA_3629  and  CGA_3630 
DOCKED: REMARK    4  A    between atoms: C3B_3635  and  CAB_3638 
DOCKED: REMARK    5  A    between atoms: C3C_3642  and  CAC_3645 
DOCKED: REMARK    6  A    between atoms: C3D_3649  and  CAD_3652 
DOCKED: REMARK    7  A    between atoms: CAD_3652  and  CBD_3653 
DOCKED: REMARK    8  A    between atoms: CBD_3653  and  CGD_3654 
DOCKED: USER                              x       y       z     vdW  Elec       q    Type
DOCKED: USER                           _______ _______ _______ _____ _____    ______ ____
DOCKED: ROOT
DOCKED: ATOM      1  CHA HEM A1501      54.118  81.253  10.352 -0.28 +0.04    +0.038 A 
DOCKED: ATOM      2  CHB HEM A1501      54.697  77.392   7.542 -0.36 +0.03    +0.038 A 
DOCKED: ATOM      3  CHC HEM A1501      55.515  74.655  11.431 -0.40 +0.01    +0.038 A 
DOCKED: ATOM      4  CHD HEM A1501      55.000  78.535  14.240 -0.39 +0.02    +0.038 A 
DOCKED: ATOM      5  C1A HEM A1501      54.231  80.443   9.227 -0.26 +0.08    +0.079 A 
DOCKED: ATOM      6  C2A HEM A1501      54.101  80.859   7.827 -0.35 -0.01    -0.006 A 
DOCKED: ATOM      7  C3A HEM A1501      54.262  79.777   7.078 -0.35 -0.01    -0.007 A 
DOCKED: ATOM      8  C4A HEM A1501      54.502  78.688   7.976 -0.31 +0.06    +0.079 A 
DOCKED: ATOM      9  CMA HEM A1501      54.228  79.691   5.583 -0.48 +0.03    +0.032 C 
DOCKED: ATOM     10  C1B HEM A1501      54.942  76.293   8.346 -0.33 +0.05    +0.079 A 
DOCKED: ATOM     11  C2B HEM A1501      55.122  74.938   7.840 -0.46 -0.00    -0.003 A 
DOCKED: ATOM     12  C3B HEM A1501      55.336  74.170   8.939 -0.44 +0.01    +0.015 A 
DOCKED: ATOM     13  C4B HEM A1501      55.311  75.057  10.099 -0.35 +0.03    +0.083 A 
DOCKED: ATOM     14  CMB HEM A1501      55.062  74.548   6.388 -0.58 +0.02    +0.033 C 
DOCKED: ATOM     15  C1C HEM A1501      55.490  75.428  12.560 -0.33 +0.03    +0.079 A 
DOCKED: ATOM     16  C2C HEM A1501      55.790  74.969  13.889 -0.41 -0.00    -0.003 A 
DOCKED: ATOM     17  C3C HEM A1501      55.668  76.051  14.700 -0.39 +0.01    +0.015 A 
DOCKED: ATOM     18  C4C HEM A1501      55.277  77.184  13.839 -0.33 +0.03    +0.083 A 
DOCKED: ATOM     19  CMC HEM A1501      56.160  73.537  14.219 -0.55 +0.01    +0.033 C 
DOCKED: ATOM     20  C1D HEM A1501      54.649  79.645  13.433 -0.33 +0.05    +0.079 A 
DOCKED: ATOM     21  C2D HEM A1501      54.394  80.967  13.920 -0.41 -0.00    -0.007 A 
DOCKED: ATOM     22  C3D HEM A1501      54.144  81.736  12.829 -0.36 -0.00    -0.006 A 
DOCKED: ATOM     23  C4D HEM A1501      54.254  80.877  11.666 -0.23 +0.07    +0.079 A 
DOCKED: ATOM     24  CMD HEM A1501      54.405  81.406  15.330 -0.46 +0.01    +0.032 C 
DOCKED: ATOM     25  NA  HEM A1501      54.510  79.102   9.275 -0.17 -0.20    -0.246 N 
DOCKED: ATOM     26  NB  HEM A1501      55.048  76.324   9.716 -0.03 -0.12    -0.246 N 
DOCKED: ATOM     27  NC  HEM A1501      55.215  76.755  12.577 -0.15 -0.11    -0.246 N 
DOCKED: ATOM     28  ND  HEM A1501      54.565  79.617  12.069 -0.13 -0.18    -0.246 N 
DOCKED: ATOM     29 FE   HEM A1501      54.844  77.955  10.931 -0.07 +0.00    +0.000 Fe
DOCKED: ENDROOT
DOCKED: BRANCH  22  30
DOCKED: ATOM     30  CAD HEM A1501      53.826  83.182  12.889 -0.44 +0.04    +0.039 C 
DOCKED: BRANCH  30  31
DOCKED: ATOM     31  CBD HEM A1501      52.355  83.429  13.222 -0.51 +0.11    +0.102 C 
DOCKED: BRANCH  31  32
DOCKED: ATOM     32  CGD HEM A1501      52.044  84.892  13.482 -0.50 +0.26    +0.186 C 
DOCKED: ATOM     33  O1D HEM A1501      53.062  85.616  13.432 -0.38 -1.24    -0.647 OA
DOCKED: ATOM     34  O2D HEM A1501      50.828  85.333  13.685 -0.93 -0.91    -0.647 OA
DOCKED: ENDBRANCH  31  32
DOCKED: ENDBRANCH  30  31
DOCKED: ENDBRANCH  22  30
DOCKED: BRANCH   6  35
DOCKED: ATOM     35  CAA HEM A1501      53.844  82.227   7.301 -0.44 +0.06    +0.039 C 
DOCKED: BRANCH  35  36
DOCKED: ATOM     36  CBA HEM A1501      52.394  82.410   6.899 -0.57 +0.16    +0.102 C 
DOCKED: BRANCH  36  37
DOCKED: ATOM     37  CGA HEM A1501      52.121  83.664   6.115 -0.64 +0.35    +0.186 C 
DOCKED: ATOM     38  O1A HEM A1501      51.071  83.724   5.435 -1.06 -1.33    -0.647 OA
DOCKED: ATOM     39  O2A HEM A1501      52.929  84.611   6.211 -1.16 -1.64    -0.647 OA
DOCKED: ENDBRANCH  36  37
DOCKED: ENDBRANCH  35  36
DOCKED: ENDBRANCH   6  35
DOCKED: BRANCH  17  40
DOCKED: ATOM     40  CAC HEM A1501      55.865  76.126  16.153 -0.57 +0.00    +0.001 C 
DOCKED: ATOM     41  CBC HEM A1501      55.182  75.453  17.092 -0.64 +0.00    +0.000 C 
DOCKED: ENDBRANCH  17  40
DOCKED: BRANCH  12  42
DOCKED: ATOM     42  CAB HEM A1501      55.571  72.715   9.081 -0.52 +0.00    +0.001 C 
DOCKED: ATOM     43  CBB HEM A1501      54.717  71.712   9.131 -0.56 +0.00    +0.000 C 
DOCKED: ENDBRANCH  12  42
DOCKED: TORSDOF 8
DOCKED: TER
DOCKED: ENDMDL
________________________________________________________________________________


	BEGINNING GENETIC ALGORITHM DOCKING 27 of 100
Run: 27 Seed: 428372115 361357003 [ Run 27 of 100 GA/GALS ]
Beginning LAMARCKIAN GENETIC ALGORITHM (LGA), with a maximum of 2500000 energy evaluations.

Final-Value: -23.469


	FINAL GENETIC ALGORITHM DOCKED STATE
	_______________________________________________


Detailed state:  trans 54.932 78.858 10.695 quatxyzw 0.164230 -0.972898 0.162577 0.008118 center 54.495 78.699 10.493 ntor 8 141.5268 175.2549 -131.8844 146.2323 18.3195 17.5877 -160.3169 164.2494
State:	 54.932  78.858  10.695   0.164 -0.973  0.163 179.070    141.53  175.25 -131.88  146.23   18.32   17.59 -160.32  164.25

DOCKED: MODEL       27
DOCKED: USER    Run = 27
DOCKED: USER    DPF = C:/Users/georg/Desktop/Dock/executables_autodock_tools/receptor.dpf
DOCKED: USER  
DOCKED: USER    Estimated Free Energy of Binding    =  -20.59 kcal/mol  [=(1)+(2)+(3)-(4)]
DOCKED: USER    Estimated Inhibition Constant, Ki   =  813.81 aM (attomolar)  [Temperature = 298.15 K]
DOCKED: USER    
DOCKED: USER    (1) Final Intermolecular Energy     =  -22.97 kcal/mol
DOCKED: USER        vdW + Hbond + desolv Energy     =  -18.59 kcal/mol
DOCKED: USER        Electrostatic Energy            =   -4.38 kcal/mol
DOCKED: USER    (2) Final Total Internal Energy     =   -0.50 kcal/mol
DOCKED: USER    (3) Torsional Free Energy           =   +2.39 kcal/mol
DOCKED: USER    (4) Unbound System's Energy  [=(2)] =   -0.50 kcal/mol
DOCKED: USER    
DOCKED: USER    
DOCKED: USER    NEWDPF move ligand.pdbqt
DOCKED: USER    NEWDPF about 54.495000 78.699000 10.493000
DOCKED: USER    NEWDPF tran0 54.931813 78.858400 10.694593
DOCKED: USER    NEWDPF quaternion0 0.164230 -0.972898 0.162577 0.008118
DOCKED: USER    NEWDPF axisangle0 0.164235 -0.972930 0.162583 179.069775
DOCKED: USER    NEWDPF quat0 0.164235 -0.972930 0.162583 179.069775
DOCKED: USER    NEWDPF dihe0 141.53 175.25 -131.88 146.23 18.32 17.59 -160.32 164.25 
DOCKED: USER  keepresnum = 1 
DOCKED: USER  
DOCKED: REMARK  8 active torsions:
DOCKED: REMARK  status: ('A' for Active; 'I' for Inactive)
DOCKED: REMARK    1  A    between atoms: C2A_3624  and  CAA_3628 
DOCKED: REMARK    2  A    between atoms: CAA_3628  and  CBA_3629 
DOCKED: REMARK    3  A    between atoms: CBA_3629  and  CGA_3630 
DOCKED: REMARK    4  A    between atoms: C3B_3635  and  CAB_3638 
DOCKED: REMARK    5  A    between atoms: C3C_3642  and  CAC_3645 
DOCKED: REMARK    6  A    between atoms: C3D_3649  and  CAD_3652 
DOCKED: REMARK    7  A    between atoms: CAD_3652  and  CBD_3653 
DOCKED: REMARK    8  A    between atoms: CBD_3653  and  CGD_3654 
DOCKED: USER                              x       y       z     vdW  Elec       q    Type
DOCKED: USER                           _______ _______ _______ _____ _____    ______ ____
DOCKED: ROOT
DOCKED: ATOM      1  CHA HEM A1501      54.228  81.092  10.338 -0.27 +0.04    +0.038 A 
DOCKED: ATOM      2  CHB HEM A1501      54.531  77.207   7.517 -0.39 +0.03    +0.038 A 
DOCKED: ATOM      3  CHC HEM A1501      55.372  74.439  11.379 -0.40 +0.01    +0.038 A 
DOCKED: ATOM      4  CHD HEM A1501      55.135  78.340  14.197 -0.39 +0.02    +0.038 A 
DOCKED: ATOM      5  C1A HEM A1501      54.263  80.277   9.212 -0.25 +0.08    +0.079 A 
DOCKED: ATOM      6  C2A HEM A1501      54.099  80.698   7.816 -0.35 -0.01    -0.006 A 
DOCKED: ATOM      7  C3A HEM A1501      54.184  79.610   7.065 -0.36 -0.01    -0.007 A 
DOCKED: ATOM      8  C4A HEM A1501      54.409  78.512   7.955 -0.33 +0.06    +0.079 A 
DOCKED: ATOM      9  CMA HEM A1501      54.090  79.525   5.572 -0.47 +0.03    +0.032 C 
DOCKED: ATOM     10  C1B HEM A1501      54.757  76.100   8.314 -0.36 +0.04    +0.079 A 
DOCKED: ATOM     11  C2B HEM A1501      54.858  74.738   7.804 -0.47 -0.00    -0.003 A 
DOCKED: ATOM     12  C3B HEM A1501      55.079  73.961   8.897 -0.45 +0.01    +0.015 A 
DOCKED: ATOM     13  C4B HEM A1501      55.137  74.849  10.055 -0.36 +0.03    +0.083 A 
DOCKED: ATOM     14  CMB HEM A1501      54.726  74.350   6.357 -0.58 +0.02    +0.033 C 
DOCKED: ATOM     15  C1C HEM A1501      55.424  75.213  12.506 -0.34 +0.03    +0.079 A 
DOCKED: ATOM     16  C2C HEM A1501      55.753  74.742  13.823 -0.41 -0.00    -0.003 A 
DOCKED: ATOM     17  C3C HEM A1501      55.709  75.829  14.637 -0.38 +0.01    +0.015 A 
DOCKED: ATOM     18  C4C HEM A1501      55.337  76.978  13.788 -0.32 +0.03    +0.083 A 
DOCKED: ATOM     19  CMC HEM A1501      56.072  73.296  14.143 -0.56 +0.01    +0.033 C 
DOCKED: ATOM     20  C1D HEM A1501      54.803  79.464  13.401 -0.32 +0.05    +0.079 A 
DOCKED: ATOM     21  C2D HEM A1501      54.624  80.796  13.894 -0.39 -0.00    -0.007 A 
DOCKED: ATOM     22  C3D HEM A1501      54.368  81.574  12.812 -0.33 -0.00    -0.006 A 
DOCKED: ATOM     23  C4D HEM A1501      54.397  80.711  11.647 -0.22 +0.07    +0.079 A 
DOCKED: ATOM     24  CMD HEM A1501      54.707  81.235  15.302 -0.47 +0.01    +0.032 C 
DOCKED: ATOM     25  NA  HEM A1501      54.484  78.925   9.252 -0.17 -0.20    -0.246 N 
DOCKED: ATOM     26  NB  HEM A1501      54.916  76.126   9.679 -0.03 -0.12    -0.246 N 
DOCKED: ATOM     27  NC  HEM A1501      55.208  76.551  12.531 -0.15 -0.11    -0.246 N 
DOCKED: ATOM     28  ND  HEM A1501      54.666  79.439  12.042 -0.12 -0.17    -0.246 N 
DOCKED: ATOM     29 FE   HEM A1501      54.829  77.766  10.897 -0.07 +0.00    +0.000 Fe
DOCKED: ENDROOT
DOCKED: BRANCH  22  30
DOCKED: ATOM     30  CAD HEM A1501      54.116  83.033  12.880 -0.39 +0.04    +0.039 C 
DOCKED: BRANCH  30  31
DOCKED: ATOM     31  CBD HEM A1501      52.712  83.346  13.398 -0.51 +0.11    +0.102 C 
DOCKED: BRANCH  31  32
DOCKED: ATOM     32  CGD HEM A1501      52.243  84.742  13.030 -0.46 +0.27    +0.186 C 
DOCKED: ATOM     33  O1D HEM A1501      52.986  85.292  12.188 -0.59 -1.44    -0.647 OA
DOCKED: ATOM     34  O2D HEM A1501      51.148  85.272  13.515 -0.73 -0.94    -0.647 OA
DOCKED: ENDBRANCH  31  32
DOCKED: ENDBRANCH  30  31
DOCKED: ENDBRANCH  22  30
DOCKED: BRANCH   6  35
DOCKED: ATOM     35  CAA HEM A1501      53.883  82.076   7.298 -0.43 +0.06    +0.039 C 
DOCKED: BRANCH  35  36
DOCKED: ATOM     36  CBA HEM A1501      52.414  82.355   7.043 -0.56 +0.16    +0.102 C 
DOCKED: BRANCH  36  37
DOCKED: ATOM     37  CGA HEM A1501      52.151  83.591   6.227 -0.63 +0.35    +0.186 C 
DOCKED: ATOM     38  O1A HEM A1501      52.936  84.560   6.345 -1.19 -1.65    -0.647 OA
DOCKED: ATOM     39  O2A HEM A1501      51.188  83.582   5.432 -1.06 -1.29    -0.647 OA
DOCKED: ENDBRANCH  36  37
DOCKED: ENDBRANCH  35  36
DOCKED: ENDBRANCH   6  35
DOCKED: BRANCH  17  40
DOCKED: ATOM     40  CAC HEM A1501      55.964  75.896  16.081 -0.56 +0.00    +0.001 C 
DOCKED: ATOM     41  CBC HEM A1501      55.045  75.920  17.058 -0.64 +0.00    +0.000 C 
DOCKED: ENDBRANCH  17  40
DOCKED: BRANCH  12  42
DOCKED: ATOM     42  CAB HEM A1501      55.255  72.497   9.032 -0.56 +0.00    +0.001 C 
DOCKED: ATOM     43  CBB HEM A1501      55.929  71.797   9.923 -0.57 +0.00    +0.000 C 
DOCKED: ENDBRANCH  12  42
DOCKED: TORSDOF 8
DOCKED: TER
DOCKED: ENDMDL
________________________________________________________________________________


	BEGINNING GENETIC ALGORITHM DOCKING 28 of 100
Run: 28 Seed: 1429460207 956075964 [ Run 28 of 100 GA/GALS ]
Beginning LAMARCKIAN GENETIC ALGORITHM (LGA), with a maximum of 2500000 energy evaluations.

Final-Value: -23.447


	FINAL GENETIC ALGORITHM DOCKED STATE
	_______________________________________________


Detailed state:  trans 54.904 78.768 10.636 quatxyzw -0.167247 0.974923 -0.146762 -0.003815 center 54.495 78.699 10.493 ntor 8 120.1423 43.4878 -115.6669 165.0039 6.9144 8.1046 180.0000 153.0763
State:	 54.904  78.768  10.636  -0.167  0.975 -0.147 -179.563    120.14   43.49 -115.67  165.00    6.91    8.10  180.00  153.08

DOCKED: MODEL       28
DOCKED: USER    Run = 28
DOCKED: USER    DPF = C:/Users/georg/Desktop/Dock/executables_autodock_tools/receptor.dpf
DOCKED: USER  
DOCKED: USER    Estimated Free Energy of Binding    =  -20.54 kcal/mol  [=(1)+(2)+(3)-(4)]
DOCKED: USER    Estimated Inhibition Constant, Ki   =  879.64 aM (attomolar)  [Temperature = 298.15 K]
DOCKED: USER    
DOCKED: USER    (1) Final Intermolecular Energy     =  -22.93 kcal/mol
DOCKED: USER        vdW + Hbond + desolv Energy     =  -18.44 kcal/mol
DOCKED: USER        Electrostatic Energy            =   -4.49 kcal/mol
DOCKED: USER    (2) Final Total Internal Energy     =   -0.52 kcal/mol
DOCKED: USER    (3) Torsional Free Energy           =   +2.39 kcal/mol
DOCKED: USER    (4) Unbound System's Energy  [=(2)] =   -0.52 kcal/mol
DOCKED: USER    
DOCKED: USER    
DOCKED: USER    NEWDPF move ligand.pdbqt
DOCKED: USER    NEWDPF about 54.495000 78.699000 10.493000
DOCKED: USER    NEWDPF tran0 54.903973 78.768292 10.636473
DOCKED: USER    NEWDPF quaternion0 -0.167247 0.974923 -0.146762 -0.003815
DOCKED: USER    NEWDPF axisangle0 -0.167248 0.974930 -0.146763 -179.562851
DOCKED: USER    NEWDPF quat0 -0.167248 0.974930 -0.146763 -179.562851
DOCKED: USER    NEWDPF dihe0 120.14 43.49 -115.67 165.00 6.91 8.10 180.00 153.08 
DOCKED: USER  keepresnum = 1 
DOCKED: USER  
DOCKED: REMARK  8 active torsions:
DOCKED: REMARK  status: ('A' for Active; 'I' for Inactive)
DOCKED: REMARK    1  A    between atoms: C2A_3624  and  CAA_3628 
DOCKED: REMARK    2  A    between atoms: CAA_3628  and  CBA_3629 
DOCKED: REMARK    3  A    between atoms: CBA_3629  and  CGA_3630 
DOCKED: REMARK    4  A    between atoms: C3B_3635  and  CAB_3638 
DOCKED: REMARK    5  A    between atoms: C3C_3642  and  CAC_3645 
DOCKED: REMARK    6  A    between atoms: C3D_3649  and  CAD_3652 
DOCKED: REMARK    7  A    between atoms: CAD_3652  and  CBD_3653 
DOCKED: REMARK    8  A    between atoms: CBD_3653  and  CGD_3654 
DOCKED: USER                              x       y       z     vdW  Elec       q    Type
DOCKED: USER                           _______ _______ _______ _____ _____    ______ ____
DOCKED: ROOT
DOCKED: ATOM      1  CHA HEM A1501      54.186  81.009  10.358 -0.26 +0.04    +0.038 A 
DOCKED: ATOM      2  CHB HEM A1501      54.463  77.211   7.417 -0.40 +0.03    +0.038 A 
DOCKED: ATOM      3  CHC HEM A1501      55.371  74.332  11.181 -0.40 +0.01    +0.038 A 
DOCKED: ATOM      4  CHD HEM A1501      55.160  78.146  14.118 -0.39 +0.02    +0.038 A 
DOCKED: ATOM      5  C1A HEM A1501      54.208  80.228   9.207 -0.25 +0.08    +0.079 A 
DOCKED: ATOM      6  C2A HEM A1501      54.022  80.689   7.827 -0.35 -0.01    -0.006 A 
DOCKED: ATOM      7  C3A HEM A1501      54.100  79.625   7.042 -0.37 -0.01    -0.007 A 
DOCKED: ATOM      8  C4A HEM A1501      54.343  78.502   7.896 -0.33 +0.06    +0.079 A 
DOCKED: ATOM      9  CMA HEM A1501      53.985  79.584   5.549 -0.46 +0.03    +0.032 C 
DOCKED: ATOM     10  C1B HEM A1501      54.705  76.081   8.177 -0.37 +0.05    +0.079 A 
DOCKED: ATOM     11  C2B HEM A1501      54.803  74.736   7.625 -0.47 -0.00    -0.003 A 
DOCKED: ATOM     12  C3B HEM A1501      55.044  73.928   8.690 -0.45 +0.01    +0.015 A 
DOCKED: ATOM     13  C4B HEM A1501      55.115  74.781   9.874 -0.37 +0.03    +0.083 A 
DOCKED: ATOM     14  CMB HEM A1501      54.652  74.391   6.169 -0.59 +0.02    +0.033 C 
DOCKED: ATOM     15  C1C HEM A1501      55.437  75.072  12.331 -0.35 +0.03    +0.079 A 
DOCKED: ATOM     16  C2C HEM A1501      55.787  74.564  13.628 -0.42 -0.00    -0.003 A 
DOCKED: ATOM     17  C3C HEM A1501      55.751  75.625  14.474 -0.38 +0.01    +0.015 A 
DOCKED: ATOM     18  C4C HEM A1501      55.362  76.798  13.666 -0.31 +0.03    +0.083 A 
DOCKED: ATOM     19  CMC HEM A1501      56.116  73.110  13.900 -0.54 +0.01    +0.033 C 
DOCKED: ATOM     20  C1D HEM A1501      54.812  79.292  13.362 -0.32 +0.04    +0.079 A 
DOCKED: ATOM     21  C2D HEM A1501      54.636  80.607  13.897 -0.39 -0.00    -0.007 A 
DOCKED: ATOM     22  C3D HEM A1501      54.361  81.417  12.842 -0.33 -0.00    -0.006 A 
DOCKED: ATOM     23  C4D HEM A1501      54.376  80.590  11.651 -0.21 +0.07    +0.079 A 
DOCKED: ATOM     24  CMD HEM A1501      54.738  81.005  15.316 -0.42 +0.01    +0.032 C 
DOCKED: ATOM     25  NA  HEM A1501      54.435  78.877   9.203 -0.17 -0.20    -0.246 N 
DOCKED: ATOM     26  NB  HEM A1501      54.884  76.068   9.539 -0.11 -0.12    -0.246 N 
DOCKED: ATOM     27  NC  HEM A1501      55.216  76.408  12.398 -0.14 -0.11    -0.246 N 
DOCKED: ATOM     28  ND  HEM A1501      54.656  79.307  12.004 -0.10 -0.17    -0.246 N 
DOCKED: ATOM     29 FE   HEM A1501      54.808  77.670  10.807 -0.07 +0.00    +0.000 Fe
DOCKED: ENDROOT
DOCKED: BRANCH  22  30
DOCKED: ATOM     30  CAD HEM A1501      54.104  82.872  12.958 -0.40 +0.04    +0.039 C 
DOCKED: BRANCH  30  31
DOCKED: ATOM     31  CBD HEM A1501      52.610  83.184  13.031 -0.51 +0.11    +0.102 C 
DOCKED: BRANCH  31  32
DOCKED: ATOM     32  CGD HEM A1501      52.309  84.668  12.933 -0.46 +0.27    +0.186 C 
DOCKED: ATOM     33  O1D HEM A1501      53.180  85.294  12.289 -0.60 -1.45    -0.647 OA
DOCKED: ATOM     34  O2D HEM A1501      51.224  85.207  13.431 -0.63 -0.93    -0.647 OA
DOCKED: ENDBRANCH  31  32
DOCKED: ENDBRANCH  30  31
DOCKED: ENDBRANCH  22  30
DOCKED: BRANCH   6  35
DOCKED: ATOM     35  CAA HEM A1501      53.793  82.082   7.353 -0.44 +0.06    +0.039 C 
DOCKED: BRANCH  35  36
DOCKED: ATOM     36  CBA HEM A1501      52.369  82.282   6.871 -0.57 +0.16    +0.102 C 
DOCKED: BRANCH  36  37
DOCKED: ATOM     37  CGA HEM A1501      52.099  83.642   6.288 -0.62 +0.36    +0.186 C 
DOCKED: ATOM     38  O1A HEM A1501      52.940  84.550   6.481 -1.19 -1.69    -0.647 OA
DOCKED: ATOM     39  O2A HEM A1501      51.071  83.797   5.596 -1.00 -1.36    -0.647 OA
DOCKED: ENDBRANCH  36  37
DOCKED: ENDBRANCH  35  36
DOCKED: ENDBRANCH   6  35
DOCKED: BRANCH  17  40
DOCKED: ATOM     40  CAC HEM A1501      56.026  75.651  15.916 -0.55 +0.00    +0.001 C 
DOCKED: ATOM     41  CBC HEM A1501      55.184  76.034  16.888 -0.63 +0.00    +0.000 C 
DOCKED: ENDBRANCH  17  40
DOCKED: BRANCH  12  42
DOCKED: ATOM     42  CAB HEM A1501      55.228  72.461   8.780 -0.55 +0.00    +0.001 C 
DOCKED: ATOM     43  CBB HEM A1501      55.547  71.582   7.851 -0.55 +0.00    +0.000 C 
DOCKED: ENDBRANCH  12  42
DOCKED: TORSDOF 8
DOCKED: TER
DOCKED: ENDMDL
________________________________________________________________________________


	BEGINNING GENETIC ALGORITHM DOCKING 29 of 100
Run: 29 Seed: 1309642627 1680246815 [ Run 29 of 100 GA/GALS ]
Beginning LAMARCKIAN GENETIC ALGORITHM (LGA), with a maximum of 2500000 energy evaluations.

Final-Value: -23.117


	FINAL GENETIC ALGORITHM DOCKED STATE
	_______________________________________________


Detailed state:  trans 54.413 78.832 10.811 quatxyzw -0.017766 -0.002633 -0.012269 0.999763 center 54.495 78.699 10.493 ntor 8 4.6028 -7.3709 -121.8501 29.7518 -18.5797 25.6357 -45.8041 -11.3079
State:	 54.413  78.832  10.811  -0.817 -0.121 -0.564  2.493      4.60   -7.37 -121.85   29.75  -18.58   25.64  -45.80  -11.31

DOCKED: MODEL       29
DOCKED: USER    Run = 29
DOCKED: USER    DPF = C:/Users/georg/Desktop/Dock/executables_autodock_tools/receptor.dpf
DOCKED: USER  
DOCKED: USER    Estimated Free Energy of Binding    =  -20.52 kcal/mol  [=(1)+(2)+(3)-(4)]
DOCKED: USER    Estimated Inhibition Constant, Ki   =  904.55 aM (attomolar)  [Temperature = 298.15 K]
DOCKED: USER    
DOCKED: USER    (1) Final Intermolecular Energy     =  -22.91 kcal/mol
DOCKED: USER        vdW + Hbond + desolv Energy     =  -18.35 kcal/mol
DOCKED: USER        Electrostatic Energy            =   -4.56 kcal/mol
DOCKED: USER    (2) Final Total Internal Energy     =   -0.21 kcal/mol
DOCKED: USER    (3) Torsional Free Energy           =   +2.39 kcal/mol
DOCKED: USER    (4) Unbound System's Energy  [=(2)] =   -0.21 kcal/mol
DOCKED: USER    
DOCKED: USER    
DOCKED: USER    NEWDPF move ligand.pdbqt
DOCKED: USER    NEWDPF about 54.495000 78.699000 10.493000
DOCKED: USER    NEWDPF tran0 54.413250 78.831842 10.810615
DOCKED: USER    NEWDPF quaternion0 -0.017766 -0.002633 -0.012269 0.999763
DOCKED: USER    NEWDPF axisangle0 -0.816786 -0.121065 -0.564096 2.492630
DOCKED: USER    NEWDPF quat0 -0.816786 -0.121065 -0.564096 2.492630
DOCKED: USER    NEWDPF dihe0 4.60 -7.37 -121.85 29.75 -18.58 25.64 -45.80 -11.31 
DOCKED: USER  keepresnum = 1 
DOCKED: USER  
DOCKED: REMARK  8 active torsions:
DOCKED: REMARK  status: ('A' for Active; 'I' for Inactive)
DOCKED: REMARK    1  A    between atoms: C2A_3624  and  CAA_3628 
DOCKED: REMARK    2  A    between atoms: CAA_3628  and  CBA_3629 
DOCKED: REMARK    3  A    between atoms: CBA_3629  and  CGA_3630 
DOCKED: REMARK    4  A    between atoms: C3B_3635  and  CAB_3638 
DOCKED: REMARK    5  A    between atoms: C3C_3642  and  CAC_3645 
DOCKED: REMARK    6  A    between atoms: C3D_3649  and  CAD_3652 
DOCKED: REMARK    7  A    between atoms: CAD_3652  and  CBD_3653 
DOCKED: REMARK    8  A    between atoms: CBD_3653  and  CGD_3654 
DOCKED: USER                              x       y       z     vdW  Elec       q    Type
DOCKED: USER                           _______ _______ _______ _____ _____    ______ ____
DOCKED: ROOT
DOCKED: ATOM      1  CHA HEM A1501      54.287  81.175  10.482 -0.27 +0.04    +0.038 A 
DOCKED: ATOM      2  CHB HEM A1501      55.233  78.394  14.292 -0.38 +0.02    +0.038 A 
DOCKED: ATOM      3  CHC HEM A1501      55.556  74.529  11.421 -0.40 +0.01    +0.038 A 
DOCKED: ATOM      4  CHD HEM A1501      54.543  77.302   7.614 -0.38 +0.03    +0.038 A 
DOCKED: ATOM      5  C1A HEM A1501      54.491  80.753  11.792 -0.23 +0.07    +0.079 A 
DOCKED: ATOM      6  C2A HEM A1501      54.443  81.582  13.000 -0.33 -0.00    -0.006 A 
DOCKED: ATOM      7  C3A HEM A1501      54.710  80.792  14.031 -0.39 -0.00    -0.007 A 
DOCKED: ATOM      8  C4A HEM A1501      54.913  79.479  13.499 -0.32 +0.04    +0.079 A 
DOCKED: ATOM      9  CMA HEM A1501      54.767  81.173  15.479 -0.46 +0.01    +0.032 C 
DOCKED: ATOM     10  C1B HEM A1501      55.436  77.098  13.853 -0.32 +0.03    +0.079 A 
DOCKED: ATOM     11  C2B HEM A1501      55.792  75.988  14.729 -0.40 -0.00    -0.003 A 
DOCKED: ATOM     12  C3B HEM A1501      55.896  74.907  13.914 -0.41 +0.01    +0.015 A 
DOCKED: ATOM     13  C4B HEM A1501      55.582  75.353  12.560 -0.33 +0.03    +0.083 A 
DOCKED: ATOM     14  CMB HEM A1501      55.991  76.097  16.216 -0.55 +0.01    +0.033 C 
DOCKED: ATOM     15  C1C HEM A1501      55.284  74.884  10.127 -0.37 +0.03    +0.079 A 
DOCKED: ATOM     16  C2C HEM A1501      55.191  73.975   9.018 -0.46 -0.00    -0.003 A 
DOCKED: ATOM     17  C3C HEM A1501      54.889  74.732   7.932 -0.45 +0.01    +0.015 A 
DOCKED: ATOM     18  C4C HEM A1501      54.807  76.130   8.399 -0.35 +0.05    +0.083 A 
DOCKED: ATOM     19  CMC HEM A1501      55.405  72.480   9.137 -0.52 +0.01    +0.033 C 
DOCKED: ATOM     20  C1D HEM A1501      54.433  78.649   8.040 -0.32 +0.06    +0.079 A 
DOCKED: ATOM     21  C2D HEM A1501      54.160  79.763   7.184 -0.36 -0.01    -0.007 A 
DOCKED: ATOM     22  C3D HEM A1501      54.088  80.855   7.986 -0.35 -0.01    -0.006 A 
DOCKED: ATOM     23  C4D HEM A1501      54.312  80.404   9.346 -0.25 +0.08    +0.079 A 
DOCKED: ATOM     24  CMD HEM A1501      53.986  79.727   5.718 -0.46 +0.03    +0.032 C 
DOCKED: ATOM     25  NA  HEM A1501      54.752  79.455  12.146 -0.14 -0.17    -0.246 N 
DOCKED: ATOM     26  NB  HEM A1501      55.332  76.679  12.548 -0.16 -0.11    -0.246 N 
DOCKED: ATOM     27  NC  HEM A1501      55.025  76.149   9.715 -0.07 -0.12    -0.246 N 
DOCKED: ATOM     28  ND  HEM A1501      54.516  79.060   9.341 -0.16 -0.20    -0.246 N 
DOCKED: ATOM     29 FE   HEM A1501      54.896  77.831  10.916 -0.07 +0.00    +0.000 Fe
DOCKED: ENDROOT
DOCKED: BRANCH  22  30
DOCKED: ATOM     30  CAD HEM A1501      53.822  82.229   7.496 -0.42 +0.06    +0.039 C 
DOCKED: BRANCH  30  31
DOCKED: ATOM     31  CBD HEM A1501      52.787  82.244   6.372 -0.56 +0.15    +0.102 C 
DOCKED: BRANCH  31  32
DOCKED: ATOM     32  CGD HEM A1501      52.202  83.622   6.124 -0.64 +0.35    +0.186 C 
DOCKED: ATOM     33  O1D HEM A1501      52.936  84.540   6.550 -1.19 -1.71    -0.647 OA
DOCKED: ATOM     34  O2D HEM A1501      51.073  83.808   5.486 -1.04 -1.34    -0.647 OA
DOCKED: ENDBRANCH  31  32
DOCKED: ENDBRANCH  30  31
DOCKED: ENDBRANCH  22  30
DOCKED: BRANCH   6  35
DOCKED: ATOM     35  CAA HEM A1501      54.149  83.038  13.098 -0.39 +0.04    +0.039 C 
DOCKED: BRANCH  35  36
DOCKED: ATOM     36  CBA HEM A1501      52.660  83.303  13.206 -0.52 +0.11    +0.102 C 
DOCKED: BRANCH  36  37
DOCKED: ATOM     37  CGA HEM A1501      52.246  84.690  12.800 -0.39 +0.27    +0.186 C 
DOCKED: ATOM     38  O1A HEM A1501      51.251  85.203  13.363 -0.61 -0.94    -0.647 OA
DOCKED: ATOM     39  O2A HEM A1501      52.938  85.292  11.953 -0.47 -1.49    -0.647 OA
DOCKED: ENDBRANCH  36  37
DOCKED: ENDBRANCH  35  36
DOCKED: ENDBRANCH   6  35
DOCKED: BRANCH  17  40
DOCKED: ATOM     40  CAC HEM A1501      54.685  74.295   6.545 -0.60 +0.00    +0.001 C 
DOCKED: ATOM     41  CBC HEM A1501      53.599  74.509   5.787 -0.66 +0.00    +0.000 C 
DOCKED: ENDBRANCH  17  40
DOCKED: BRANCH  12  42
DOCKED: ATOM     42  CAB HEM A1501      56.243  73.497  14.205 -0.58 +0.00    +0.001 C 
DOCKED: ATOM     43  CBB HEM A1501      57.032  72.984  15.128 -0.63 +0.00    +0.000 C 
DOCKED: ENDBRANCH  12  42
DOCKED: TORSDOF 8
DOCKED: TER
DOCKED: ENDMDL
________________________________________________________________________________


	BEGINNING GENETIC ALGORITHM DOCKING 30 of 100
Run: 30 Seed: 1973201668 1890171846 [ Run 30 of 100 GA/GALS ]
Beginning LAMARCKIAN GENETIC ALGORITHM (LGA), with a maximum of 2500000 energy evaluations.

Final-Value: -23.256


	FINAL GENETIC ALGORITHM DOCKED STATE
	_______________________________________________


Detailed state:  trans 54.343 78.668 10.656 quatxyzw -0.030811 -0.013800 0.000764 0.999430 center 54.495 78.699 10.493 ntor 8 -82.2444 -20.6336 -173.2010 46.1813 14.2849 14.5894 -8.2713 -20.4255
State:	 54.343  78.668  10.656  -0.912 -0.409  0.023  3.870    -82.24  -20.63 -173.20   46.18   14.28   14.59   -8.27  -20.43

DOCKED: MODEL       30
DOCKED: USER    Run = 30
DOCKED: USER    DPF = C:/Users/georg/Desktop/Dock/executables_autodock_tools/receptor.dpf
DOCKED: USER  
DOCKED: USER    Estimated Free Energy of Binding    =  -20.36 kcal/mol  [=(1)+(2)+(3)-(4)]
DOCKED: USER    Estimated Inhibition Constant, Ki   =    1.19 fM (femtomolar)  [Temperature = 298.15 K]
DOCKED: USER    
DOCKED: USER    (1) Final Intermolecular Energy     =  -22.75 kcal/mol
DOCKED: USER        vdW + Hbond + desolv Energy     =  -18.24 kcal/mol
DOCKED: USER        Electrostatic Energy            =   -4.51 kcal/mol
DOCKED: USER    (2) Final Total Internal Energy     =   -0.51 kcal/mol
DOCKED: USER    (3) Torsional Free Energy           =   +2.39 kcal/mol
DOCKED: USER    (4) Unbound System's Energy  [=(2)] =   -0.51 kcal/mol
DOCKED: USER    
DOCKED: USER    
DOCKED: USER    NEWDPF move ligand.pdbqt
DOCKED: USER    NEWDPF about 54.495000 78.699000 10.493000
DOCKED: USER    NEWDPF tran0 54.342681 78.668470 10.655872
DOCKED: USER    NEWDPF quaternion0 -0.030811 -0.013800 0.000764 0.999430
DOCKED: USER    NEWDPF axisangle0 -0.912406 -0.408660 0.022613 3.870347
DOCKED: USER    NEWDPF quat0 -0.912406 -0.408660 0.022613 3.870347
DOCKED: USER    NEWDPF dihe0 -82.24 -20.63 -173.20 46.18 14.28 14.59 -8.27 -20.43 
DOCKED: USER  keepresnum = 1 
DOCKED: USER  
DOCKED: REMARK  8 active torsions:
DOCKED: REMARK  status: ('A' for Active; 'I' for Inactive)
DOCKED: REMARK    1  A    between atoms: C2A_3624  and  CAA_3628 
DOCKED: REMARK    2  A    between atoms: CAA_3628  and  CBA_3629 
DOCKED: REMARK    3  A    between atoms: CBA_3629  and  CGA_3630 
DOCKED: REMARK    4  A    between atoms: C3B_3635  and  CAB_3638 
DOCKED: REMARK    5  A    between atoms: C3C_3642  and  CAC_3645 
DOCKED: REMARK    6  A    between atoms: C3D_3649  and  CAD_3652 
DOCKED: REMARK    7  A    between atoms: CAD_3652  and  CBD_3653 
DOCKED: REMARK    8  A    between atoms: CBD_3653  and  CGD_3654 
DOCKED: USER                              x       y       z     vdW  Elec       q    Type
DOCKED: USER                           _______ _______ _______ _____ _____    ______ ____
DOCKED: ROOT
DOCKED: ATOM      1  CHA HEM A1501      54.270  81.021  10.390 -0.26 +0.04    +0.038 A 
DOCKED: ATOM      2  CHB HEM A1501      55.230  78.119  14.104 -0.38 +0.02    +0.038 A 
DOCKED: ATOM      3  CHC HEM A1501      55.386  74.324  11.130 -0.40 +0.01    +0.038 A 
DOCKED: ATOM      4  CHD HEM A1501      54.359  77.220   7.419 -0.41 +0.03    +0.038 A 
DOCKED: ATOM      5  C1A HEM A1501      54.492  80.560  11.684 -0.22 +0.06    +0.079 A 
DOCKED: ATOM      6  C2A HEM A1501      54.494  81.359  12.914 -0.32 -0.00    -0.006 A 
DOCKED: ATOM      7  C3A HEM A1501      54.763  80.536  13.917 -0.38 -0.00    -0.007 A 
DOCKED: ATOM      8  C4A HEM A1501      54.921  79.232  13.348 -0.31 +0.04    +0.079 A 
DOCKED: ATOM      9  CMA HEM A1501      54.864  80.877  15.372 -0.38 +0.01    +0.032 C 
DOCKED: ATOM     10  C1B HEM A1501      55.389  76.830  13.629 -0.31 +0.03    +0.079 A 
DOCKED: ATOM     11  C2B HEM A1501      55.736  75.690  14.468 -0.39 -0.00    -0.003 A 
DOCKED: ATOM     12  C3B HEM A1501      55.793  74.628  13.623 -0.41 +0.01    +0.015 A 
DOCKED: ATOM     13  C4B HEM A1501      55.460  75.117  12.288 -0.34 +0.03    +0.083 A 
DOCKED: ATOM     14  CMB HEM A1501      55.972  75.755  15.952 -0.53 +0.01    +0.033 C 
DOCKED: ATOM     15  C1C HEM A1501      55.095  74.719   9.852 -0.38 +0.03    +0.079 A 
DOCKED: ATOM     16  C2C HEM A1501      54.953  73.842   8.722 -0.46 -0.00    -0.003 A 
DOCKED: ATOM     17  C3C HEM A1501      54.646  74.634   7.663 -0.46 +0.01    +0.015 A 
DOCKED: ATOM     18  C4C HEM A1501      54.611  76.021   8.168 -0.37 +0.05    +0.083 A 
DOCKED: ATOM     19  CMC HEM A1501      55.130  72.339   8.798 -0.54 +0.01    +0.033 C 
DOCKED: ATOM     20  C1D HEM A1501      54.295  78.557   7.882 -0.33 +0.06    +0.079 A 
DOCKED: ATOM     21  C2D HEM A1501      54.031  79.700   7.061 -0.37 -0.01    -0.007 A 
DOCKED: ATOM     22  C3D HEM A1501      54.006  80.772   7.892 -0.36 -0.01    -0.006 A 
DOCKED: ATOM     23  C4D HEM A1501      54.249  80.280   9.234 -0.25 +0.08    +0.079 A 
DOCKED: ATOM     24  CMD HEM A1501      53.823  79.707   5.599 -0.45 +0.03    +0.032 C 
DOCKED: ATOM     25  NA  HEM A1501      54.728  79.248  11.998 -0.11 -0.17    -0.246 N 
DOCKED: ATOM     26  NB  HEM A1501      55.244  76.449  12.316 -0.13 -0.11    -0.246 N 
DOCKED: ATOM     27  NC  HEM A1501      54.860  76.001   9.479 -0.14 -0.12    -0.246 N 
DOCKED: ATOM     28  ND  HEM A1501      54.417  78.932   9.191 -0.18 -0.20    -0.246 N 
DOCKED: ATOM     29 FE   HEM A1501      54.801  77.653  10.725 -0.07 +0.00    +0.000 Fe
DOCKED: ENDROOT
DOCKED: BRANCH  22  30
DOCKED: ATOM     30  CAD HEM A1501      53.765  82.164   7.444 -0.43 +0.06    +0.039 C 
DOCKED: BRANCH  30  31
DOCKED: ATOM     31  CBD HEM A1501      52.290  82.418   7.136 -0.56 +0.16    +0.102 C 
DOCKED: BRANCH  31  32
DOCKED: ATOM     32  CGD HEM A1501      52.063  83.674   6.316 -0.62 +0.36    +0.186 C 
DOCKED: ATOM     33  O1D HEM A1501      52.929  84.551   6.530 -1.19 -1.70    -0.647 OA
DOCKED: ATOM     34  O2D HEM A1501      51.090  83.788   5.446 -1.06 -1.33    -0.647 OA
DOCKED: ENDBRANCH  31  32
DOCKED: ENDBRANCH  30  31
DOCKED: ENDBRANCH  22  30
DOCKED: BRANCH   6  35
DOCKED: ATOM     35  CAA HEM A1501      54.240  82.819  13.055 -0.38 +0.04    +0.039 C 
DOCKED: BRANCH  35  36
DOCKED: ATOM     36  CBA HEM A1501      52.760  83.140  12.982 -0.50 +0.11    +0.102 C 
DOCKED: BRANCH  36  37
DOCKED: ATOM     37  CGA HEM A1501      52.449  84.607  12.866 -0.44 +0.27    +0.186 C 
DOCKED: ATOM     38  O1A HEM A1501      51.568  85.089  13.615 -0.41 -0.92    -0.647 OA
DOCKED: ATOM     39  O2A HEM A1501      53.113  85.292  12.061 -0.52 -1.51    -0.647 OA
DOCKED: ENDBRANCH  36  37
DOCKED: ENDBRANCH  35  36
DOCKED: ENDBRANCH   6  35
DOCKED: BRANCH  17  40
DOCKED: ATOM     40  CAC HEM A1501      54.400  74.239   6.271 -0.61 +0.00    +0.001 C 
DOCKED: ATOM     41  CBC HEM A1501      53.768  73.132   5.850 -0.67 +0.00    +0.000 C 
DOCKED: ENDBRANCH  17  40
DOCKED: BRANCH  12  42
DOCKED: ATOM     42  CAB HEM A1501      56.109  73.202  13.870 -0.56 +0.00    +0.001 C 
DOCKED: ATOM     43  CBB HEM A1501      57.065  72.651  14.591 -0.63 +0.00    +0.000 C 
DOCKED: ENDBRANCH  12  42
DOCKED: TORSDOF 8
DOCKED: TER
DOCKED: ENDMDL
________________________________________________________________________________


	BEGINNING GENETIC ALGORITHM DOCKING 31 of 100
Run: 31 Seed: 2017349720 1330677746 [ Run 31 of 100 GA/GALS ]
Beginning LAMARCKIAN GENETIC ALGORITHM (LGA), with a maximum of 2500000 energy evaluations.

Final-Value: -23.060


	FINAL GENETIC ALGORITHM DOCKED STATE
	_______________________________________________


Detailed state:  trans 54.326 79.015 10.656 quatxyzw -0.012116 -0.014914 0.019897 -0.999617 center 54.495 78.699 10.493 ntor 8 6.0768 -26.6037 -149.9668 -179.3007 -8.3068 -23.8033 -14.9329 -9.3427
State:	 54.326  79.015  10.656  -0.438 -0.539  0.719 -3.170      6.08  -26.60 -149.97 -179.30   -8.31  -23.80  -14.93   -9.34

DOCKED: MODEL       31
DOCKED: USER    Run = 31
DOCKED: USER    DPF = C:/Users/georg/Desktop/Dock/executables_autodock_tools/receptor.dpf
DOCKED: USER  
DOCKED: USER    Estimated Free Energy of Binding    =  -20.07 kcal/mol  [=(1)+(2)+(3)-(4)]
DOCKED: USER    Estimated Inhibition Constant, Ki   =    1.93 fM (femtomolar)  [Temperature = 298.15 K]
DOCKED: USER    
DOCKED: USER    (1) Final Intermolecular Energy     =  -22.46 kcal/mol
DOCKED: USER        vdW + Hbond + desolv Energy     =  -18.37 kcal/mol
DOCKED: USER        Electrostatic Energy            =   -4.09 kcal/mol
DOCKED: USER    (2) Final Total Internal Energy     =   -0.60 kcal/mol
DOCKED: USER    (3) Torsional Free Energy           =   +2.39 kcal/mol
DOCKED: USER    (4) Unbound System's Energy  [=(2)] =   -0.60 kcal/mol
DOCKED: USER    
DOCKED: USER    
DOCKED: USER    NEWDPF move ligand.pdbqt
DOCKED: USER    NEWDPF about 54.495000 78.699000 10.493000
DOCKED: USER    NEWDPF tran0 54.326423 79.014812 10.656295
DOCKED: USER    NEWDPF quaternion0 -0.012116 -0.014914 0.019897 -0.999617
DOCKED: USER    NEWDPF axisangle0 -0.438023 -0.539188 0.719313 -3.170074
DOCKED: USER    NEWDPF quat0 -0.438023 -0.539188 0.719313 -3.170074
DOCKED: USER    NEWDPF dihe0 6.08 -26.60 -149.97 -179.30 -8.31 -23.80 -14.93 -9.34 
DOCKED: USER  keepresnum = 1 
DOCKED: USER  
DOCKED: REMARK  8 active torsions:
DOCKED: REMARK  status: ('A' for Active; 'I' for Inactive)
DOCKED: REMARK    1  A    between atoms: C2A_3624  and  CAA_3628 
DOCKED: REMARK    2  A    between atoms: CAA_3628  and  CBA_3629 
DOCKED: REMARK    3  A    between atoms: CBA_3629  and  CGA_3630 
DOCKED: REMARK    4  A    between atoms: C3B_3635  and  CAB_3638 
DOCKED: REMARK    5  A    between atoms: C3C_3642  and  CAC_3645 
DOCKED: REMARK    6  A    between atoms: C3D_3649  and  CAD_3652 
DOCKED: REMARK    7  A    between atoms: CAD_3652  and  CBD_3653 
DOCKED: REMARK    8  A    between atoms: CBD_3653  and  CGD_3654 
DOCKED: USER                              x       y       z     vdW  Elec       q    Type
DOCKED: USER                           _______ _______ _______ _____ _____    ______ ____
DOCKED: ROOT
DOCKED: ATOM      1  CHA HEM A1501      54.180  81.332  10.185 -0.29 +0.04    +0.038 A 
DOCKED: ATOM      2  CHB HEM A1501      55.025  78.796  14.184 -0.38 +0.02    +0.038 A 
DOCKED: ATOM      3  CHC HEM A1501      55.505  74.774  11.562 -0.39 +0.01    +0.038 A 
DOCKED: ATOM      4  CHD HEM A1501      54.593  77.302   7.563 -0.38 +0.03    +0.038 A 
DOCKED: ATOM      5  C1A HEM A1501      54.342  80.991  11.524 -0.23 +0.07    +0.079 A 
DOCKED: ATOM      6  C2A HEM A1501      54.239  81.890  12.678 -0.34 -0.01    -0.006 A 
DOCKED: ATOM      7  C3A HEM A1501      54.478  81.166  13.762 -0.38 -0.00    -0.007 A 
DOCKED: ATOM      8  C4A HEM A1501      54.719  79.827  13.318 -0.32 +0.05    +0.079 A 
DOCKED: ATOM      9  CMA HEM A1501      54.478  81.632  15.186 -0.46 +0.02    +0.032 C 
DOCKED: ATOM     10  C1B HEM A1501      55.261  77.480  13.831 -0.33 +0.03    +0.079 A 
DOCKED: ATOM     11  C2B HEM A1501      55.600  76.430  14.784 -0.41 -0.00    -0.003 A 
DOCKED: ATOM     12  C3B HEM A1501      55.749  75.304  14.039 -0.38 +0.01    +0.015 A 
DOCKED: ATOM     13  C4B HEM A1501      55.478  75.664  12.650 -0.32 +0.03    +0.083 A 
DOCKED: ATOM     14  CMB HEM A1501      55.743  76.629  16.268 -0.53 +0.01    +0.033 C 
DOCKED: ATOM     15  C1C HEM A1501      55.276  75.048  10.241 -0.35 +0.03    +0.079 A 
DOCKED: ATOM     16  C2C HEM A1501      55.236  74.074   9.185 -0.46 -0.00    -0.003 A 
DOCKED: ATOM     17  C3C HEM A1501      54.964  74.761   8.045 -0.45 +0.01    +0.015 A 
DOCKED: ATOM     18  C4C HEM A1501      54.845  76.182   8.425 -0.34 +0.05    +0.083 A 
DOCKED: ATOM     19  CMC HEM A1501      55.466  72.592   9.400 -0.53 +0.01    +0.033 C 
DOCKED: ATOM     20  C1D HEM A1501      54.450  78.669   7.904 -0.32 +0.06    +0.079 A 
DOCKED: ATOM     21  C2D HEM A1501      54.193  79.726   6.974 -0.36 -0.01    -0.007 A 
DOCKED: ATOM     22  C3D HEM A1501      54.076  80.863   7.707 -0.35 -0.01    -0.006 A 
DOCKED: ATOM     23  C4D HEM A1501      54.258  80.496   9.098 -0.26 +0.08    +0.079 A 
DOCKED: ATOM     24  CMD HEM A1501      54.074  79.602   5.507 -0.48 +0.03    +0.032 C 
DOCKED: ATOM     25  NA  HEM A1501      54.608  79.721  11.963 -0.14 -0.18    -0.246 N 
DOCKED: ATOM     26  NB  HEM A1501      55.210  76.983  12.550 -0.13 -0.11    -0.246 N 
DOCKED: ATOM     27  NC  HEM A1501      55.015  76.282   9.745 +0.00 -0.12    -0.246 N 
DOCKED: ATOM     28  ND  HEM A1501      54.479  79.157   9.180 -0.18 -0.20    -0.246 N 
DOCKED: ATOM     29 FE   HEM A1501      54.818  78.030  10.839 -0.07 +0.00    +0.000 Fe
DOCKED: ENDROOT
DOCKED: BRANCH  22  30
DOCKED: ATOM     30  CAD HEM A1501      53.810  82.200   7.127 -0.45 +0.06    +0.039 C 
DOCKED: BRANCH  30  31
DOCKED: ATOM     31  CBD HEM A1501      52.393  82.308   6.567 -0.58 +0.15    +0.102 C 
DOCKED: BRANCH  31  32
DOCKED: ATOM     32  CGD HEM A1501      52.043  83.711   6.104 -0.64 +0.35    +0.186 C 
DOCKED: ATOM     33  O1D HEM A1501      52.929  84.546   6.389 -1.20 -1.65    -0.647 OA
DOCKED: ATOM     34  O2D HEM A1501      50.951  83.985   5.435 -0.89 -1.38    -0.647 OA
DOCKED: ENDBRANCH  31  32
DOCKED: ENDBRANCH  30  31
DOCKED: ENDBRANCH  22  30
DOCKED: BRANCH   6  35
DOCKED: ATOM     35  CAA HEM A1501      53.921  83.344  12.678 -0.43 +0.05    +0.039 C 
DOCKED: BRANCH  35  36
DOCKED: ATOM     36  CBA HEM A1501      52.427  83.591  12.766 -0.48 +0.12    +0.102 C 
DOCKED: BRANCH  36  37
DOCKED: ATOM     37  CGA HEM A1501      52.053  84.897  13.412 -0.50 +0.26    +0.186 C 
DOCKED: ATOM     38  O1A HEM A1501      52.973  85.664  13.779 -0.46 -1.10    -0.647 OA
DOCKED: ATOM     39  O2A HEM A1501      50.842  85.182  13.513 -0.76 -0.89    -0.647 OA
DOCKED: ENDBRANCH  36  37
DOCKED: ENDBRANCH  35  36
DOCKED: ENDBRANCH   6  35
DOCKED: BRANCH  17  40
DOCKED: ATOM     40  CAC HEM A1501      54.816  74.239   6.681 -0.59 +0.00    +0.001 C 
DOCKED: ATOM     41  CBC HEM A1501      53.767  74.414   5.863 -0.66 +0.00    +0.000 C 
DOCKED: ENDBRANCH  17  40
DOCKED: BRANCH  12  42
DOCKED: ATOM     42  CAB HEM A1501      56.104  73.919  14.425 -0.55 +0.00    +0.001 C 
DOCKED: ATOM     43  CBB HEM A1501      57.098  73.466  15.162 -0.61 +0.00    +0.000 C 
DOCKED: ENDBRANCH  12  42
DOCKED: TORSDOF 8
DOCKED: TER
DOCKED: ENDMDL
________________________________________________________________________________


	BEGINNING GENETIC ALGORITHM DOCKING 32 of 100
Run: 32 Seed: 1084487318 310623777 [ Run 32 of 100 GA/GALS ]
Beginning LAMARCKIAN GENETIC ALGORITHM (LGA), with a maximum of 2500000 energy evaluations.

Final-Value: -23.243


	FINAL GENETIC ALGORITHM DOCKED STATE
	_______________________________________________


Detailed state:  trans 54.323 78.963 10.643 quatxyzw -0.018583 -0.016202 0.025451 -0.999372 center 54.495 78.699 10.493 ntor 8 10.9309 50.1019 -178.5819 -179.9015 -0.0084 -23.0093 -0.1438 -3.2564
State:	 54.323  78.963  10.643  -0.524 -0.457  0.718 -4.061     10.93   50.10 -178.58 -179.90   -0.01  -23.01   -0.14   -3.26

DOCKED: MODEL       32
DOCKED: USER    Run = 32
DOCKED: USER    DPF = C:/Users/georg/Desktop/Dock/executables_autodock_tools/receptor.dpf
DOCKED: USER  
DOCKED: USER    Estimated Free Energy of Binding    =  -20.25 kcal/mol  [=(1)+(2)+(3)-(4)]
DOCKED: USER    Estimated Inhibition Constant, Ki   =    1.43 fM (femtomolar)  [Temperature = 298.15 K]
DOCKED: USER    
DOCKED: USER    (1) Final Intermolecular Energy     =  -22.64 kcal/mol
DOCKED: USER        vdW + Hbond + desolv Energy     =  -18.55 kcal/mol
DOCKED: USER        Electrostatic Energy            =   -4.09 kcal/mol
DOCKED: USER    (2) Final Total Internal Energy     =   -0.60 kcal/mol
DOCKED: USER    (3) Torsional Free Energy           =   +2.39 kcal/mol
DOCKED: USER    (4) Unbound System's Energy  [=(2)] =   -0.60 kcal/mol
DOCKED: USER    
DOCKED: USER    
DOCKED: USER    NEWDPF move ligand.pdbqt
DOCKED: USER    NEWDPF about 54.495000 78.699000 10.493000
DOCKED: USER    NEWDPF tran0 54.323376 78.963351 10.643134
DOCKED: USER    NEWDPF quaternion0 -0.018583 -0.016202 0.025451 -0.999372
DOCKED: USER    NEWDPF axisangle0 -0.524442 -0.457229 0.718263 -4.061364
DOCKED: USER    NEWDPF quat0 -0.524442 -0.457229 0.718263 -4.061364
DOCKED: USER    NEWDPF dihe0 10.93 50.10 -178.58 -179.90 -0.01 -23.01 -0.14 -3.26 
DOCKED: USER  keepresnum = 1 
DOCKED: USER  
DOCKED: REMARK  8 active torsions:
DOCKED: REMARK  status: ('A' for Active; 'I' for Inactive)
DOCKED: REMARK    1  A    between atoms: C2A_3624  and  CAA_3628 
DOCKED: REMARK    2  A    between atoms: CAA_3628  and  CBA_3629 
DOCKED: REMARK    3  A    between atoms: CBA_3629  and  CGA_3630 
DOCKED: REMARK    4  A    between atoms: C3B_3635  and  CAB_3638 
DOCKED: REMARK    5  A    between atoms: C3C_3642  and  CAC_3645 
DOCKED: REMARK    6  A    between atoms: C3D_3649  and  CAD_3652 
DOCKED: REMARK    7  A    between atoms: CAD_3652  and  CBD_3653 
DOCKED: REMARK    8  A    between atoms: CBD_3653  and  CGD_3654 
DOCKED: USER                              x       y       z     vdW  Elec       q    Type
DOCKED: USER                           _______ _______ _______ _____ _____    ______ ____
DOCKED: ROOT
DOCKED: ATOM      1  CHA HEM A1501      54.153  81.272  10.141 -0.29 +0.04    +0.038 A 
DOCKED: ATOM      2  CHB HEM A1501      55.014  78.798  14.175 -0.39 +0.02    +0.038 A 
DOCKED: ATOM      3  CHC HEM A1501      55.545  74.748  11.607 -0.39 +0.01    +0.038 A 
DOCKED: ATOM      4  CHD HEM A1501      54.618  77.213   7.573 -0.38 +0.03    +0.038 A 
DOCKED: ATOM      5  C1A HEM A1501      54.315  80.951  11.485 -0.23 +0.07    +0.079 A 
DOCKED: ATOM      6  C2A HEM A1501      54.199  81.863  12.627 -0.35 -0.01    -0.006 A 
DOCKED: ATOM      7  C3A HEM A1501      54.443  81.157  13.721 -0.38 -0.00    -0.007 A 
DOCKED: ATOM      8  C4A HEM A1501      54.700  79.815  13.295 -0.32 +0.05    +0.079 A 
DOCKED: ATOM      9  CMA HEM A1501      54.433  81.641  15.139 -0.46 +0.02    +0.032 C 
DOCKED: ATOM     10  C1B HEM A1501      55.266  77.480  13.840 -0.33 +0.03    +0.079 A 
DOCKED: ATOM     11  C2B HEM A1501      55.613  76.446  14.808 -0.42 -0.00    -0.003 A 
DOCKED: ATOM     12  C3B HEM A1501      55.777  75.313  14.077 -0.39 +0.01    +0.015 A 
DOCKED: ATOM     13  C4B HEM A1501      55.506  75.652  12.683 -0.32 +0.03    +0.083 A 
DOCKED: ATOM     14  CMB HEM A1501      55.751  76.667  16.289 -0.53 +0.01    +0.033 C 
DOCKED: ATOM     15  C1C HEM A1501      55.317  75.002  10.282 -0.35 +0.03    +0.079 A 
DOCKED: ATOM     16  C2C HEM A1501      55.291  74.014   9.238 -0.46 -0.00    -0.003 A 
DOCKED: ATOM     17  C3C HEM A1501      55.014  74.683   8.090 -0.45 +0.01    +0.015 A 
DOCKED: ATOM     18  C4C HEM A1501      54.879  76.107   8.451 -0.34 +0.05    +0.083 A 
DOCKED: ATOM     19  CMC HEM A1501      55.536  72.537   9.474 -0.53 +0.01    +0.033 C 
DOCKED: ATOM     20  C1D HEM A1501      54.459  78.583   7.896 -0.32 +0.06    +0.079 A 
DOCKED: ATOM     21  C2D HEM A1501      54.192  79.625   6.951 -0.36 -0.01    -0.007 A 
DOCKED: ATOM     22  C3D HEM A1501      54.061  80.770   7.669 -0.35 -0.01    -0.006 A 
DOCKED: ATOM     23  C4D HEM A1501      54.243  80.423   9.066 -0.27 +0.08    +0.079 A 
DOCKED: ATOM     24  CMD HEM A1501      54.078  79.480   5.486 -0.48 +0.03    +0.032 C 
DOCKED: ATOM     25  NA  HEM A1501      54.594  79.690  11.941 -0.13 -0.18    -0.246 N 
DOCKED: ATOM     26  NB  HEM A1501      55.224  76.967  12.566 -0.14 -0.11    -0.246 N 
DOCKED: ATOM     27  NC  HEM A1501      55.044  76.227   9.769 -0.03 -0.12    -0.246 N 
DOCKED: ATOM     28  ND  HEM A1501      54.479  79.088   9.166 -0.18 -0.20    -0.246 N 
DOCKED: ATOM     29 FE   HEM A1501      54.825  77.986  10.840 -0.07 +0.00    +0.000 Fe
DOCKED: ENDROOT
DOCKED: BRANCH  22  30
DOCKED: ATOM     30  CAD HEM A1501      53.782  82.097   7.071 -0.46 +0.06    +0.039 C 
DOCKED: BRANCH  30  31
DOCKED: ATOM     31  CBD HEM A1501      52.288  82.315   6.837 -0.57 +0.16    +0.102 C 
DOCKED: BRANCH  31  32
DOCKED: ATOM     32  CGD HEM A1501      51.980  83.647   6.179 -0.62 +0.35    +0.186 C 
DOCKED: ATOM     33  O1D HEM A1501      52.748  84.559   6.556 -1.14 -1.68    -0.647 OA
DOCKED: ATOM     34  O2D HEM A1501      51.039  83.793   5.279 -1.04 -1.33    -0.647 OA
DOCKED: ENDBRANCH  31  32
DOCKED: ENDBRANCH  30  31
DOCKED: ENDBRANCH  22  30
DOCKED: BRANCH   6  35
DOCKED: ATOM     35  CAA HEM A1501      53.865  83.314  12.607 -0.43 +0.05    +0.039 C 
DOCKED: BRANCH  35  36
DOCKED: ATOM     36  CBA HEM A1501      52.385  83.552  12.836 -0.48 +0.12    +0.102 C 
DOCKED: BRANCH  36  37
DOCKED: ATOM     37  CGA HEM A1501      52.060  84.885  13.452 -0.50 +0.26    +0.186 C 
DOCKED: ATOM     38  O1A HEM A1501      53.003  85.673  13.695 -0.49 -1.14    -0.647 OA
DOCKED: ATOM     39  O2A HEM A1501      50.861  85.168  13.654 -0.79 -0.88    -0.647 OA
DOCKED: ENDBRANCH  36  37
DOCKED: ENDBRANCH  35  36
DOCKED: ENDBRANCH   6  35
DOCKED: BRANCH  17  40
DOCKED: ATOM     40  CAC HEM A1501      54.877  74.142   6.732 -0.59 +0.00    +0.001 C 
DOCKED: ATOM     41  CBC HEM A1501      53.869  74.369   5.875 -0.65 +0.00    +0.000 C 
DOCKED: ENDBRANCH  17  40
DOCKED: BRANCH  12  42
DOCKED: ATOM     42  CAB HEM A1501      56.146  73.937  14.483 -0.56 +0.00    +0.001 C 
DOCKED: ATOM     43  CBB HEM A1501      55.980  73.311  15.631 -0.60 +0.00    +0.000 C 
DOCKED: ENDBRANCH  12  42
DOCKED: TORSDOF 8
DOCKED: TER
DOCKED: ENDMDL
________________________________________________________________________________


	BEGINNING GENETIC ALGORITHM DOCKING 33 of 100
Run: 33 Seed: 1906498086 1301694124 [ Run 33 of 100 GA/GALS ]
Beginning LAMARCKIAN GENETIC ALGORITHM (LGA), with a maximum of 2500000 energy evaluations.

Final-Value: -23.248


	FINAL GENETIC ALGORITHM DOCKED STATE
	_______________________________________________


Detailed state:  trans 54.920 79.143 10.658 quatxyzw -0.181031 0.964190 -0.191112 -0.032278 center 54.495 78.699 10.493 ntor 8 180.0000 -37.9028 -134.7637 147.1266 -32.9248 7.0616 -173.4151 172.2617
State:	 54.920  79.143  10.658  -0.181  0.965 -0.191 -176.301    180.00  -37.90 -134.76  147.13  -32.92    7.06 -173.42  172.26

DOCKED: MODEL       33
DOCKED: USER    Run = 33
DOCKED: USER    DPF = C:/Users/georg/Desktop/Dock/executables_autodock_tools/receptor.dpf
DOCKED: USER  
DOCKED: USER    Estimated Free Energy of Binding    =  -20.25 kcal/mol  [=(1)+(2)+(3)-(4)]
DOCKED: USER    Estimated Inhibition Constant, Ki   =    1.43 fM (femtomolar)  [Temperature = 298.15 K]
DOCKED: USER    
DOCKED: USER    (1) Final Intermolecular Energy     =  -22.64 kcal/mol
DOCKED: USER        vdW + Hbond + desolv Energy     =  -18.46 kcal/mol
DOCKED: USER        Electrostatic Energy            =   -4.18 kcal/mol
DOCKED: USER    (2) Final Total Internal Energy     =   -0.61 kcal/mol
DOCKED: USER    (3) Torsional Free Energy           =   +2.39 kcal/mol
DOCKED: USER    (4) Unbound System's Energy  [=(2)] =   -0.61 kcal/mol
DOCKED: USER    
DOCKED: USER    
DOCKED: USER    NEWDPF move ligand.pdbqt
DOCKED: USER    NEWDPF about 54.495000 78.699000 10.493000
DOCKED: USER    NEWDPF tran0 54.920467 79.142535 10.657846
DOCKED: USER    NEWDPF quaternion0 -0.181031 0.964190 -0.191112 -0.032278
DOCKED: USER    NEWDPF axisangle0 -0.181125 0.964693 -0.191212 -176.300562
DOCKED: USER    NEWDPF quat0 -0.181125 0.964693 -0.191212 -176.300562
DOCKED: USER    NEWDPF dihe0 180.00 -37.90 -134.76 147.13 -32.92 7.06 -173.42 172.26 
DOCKED: USER  keepresnum = 1 
DOCKED: USER  
DOCKED: REMARK  8 active torsions:
DOCKED: REMARK  status: ('A' for Active; 'I' for Inactive)
DOCKED: REMARK    1  A    between atoms: C2A_3624  and  CAA_3628 
DOCKED: REMARK    2  A    between atoms: CAA_3628  and  CBA_3629 
DOCKED: REMARK    3  A    between atoms: CBA_3629  and  CGA_3630 
DOCKED: REMARK    4  A    between atoms: C3B_3635  and  CAB_3638 
DOCKED: REMARK    5  A    between atoms: C3C_3642  and  CAC_3645 
DOCKED: REMARK    6  A    between atoms: C3D_3649  and  CAD_3652 
DOCKED: REMARK    7  A    between atoms: CAD_3652  and  CBD_3653 
DOCKED: REMARK    8  A    between atoms: CBD_3653  and  CGD_3654 
DOCKED: USER                              x       y       z     vdW  Elec       q    Type
DOCKED: USER                           _______ _______ _______ _____ _____    ______ ____
DOCKED: ROOT
DOCKED: ATOM      1  CHA HEM A1501      54.143  81.323  10.152 -0.29 +0.04    +0.038 A 
DOCKED: ATOM      2  CHB HEM A1501      54.754  77.320   7.554 -0.35 +0.03    +0.038 A 
DOCKED: ATOM      3  CHC HEM A1501      55.508  74.786  11.591 -0.39 +0.01    +0.038 A 
DOCKED: ATOM      4  CHD HEM A1501      54.962  78.807  14.188 -0.39 +0.02    +0.038 A 
DOCKED: ATOM      5  C1A HEM A1501      54.271  80.455   9.072 -0.26 +0.08    +0.079 A 
DOCKED: ATOM      6  C2A HEM A1501      54.163  80.798   7.650 -0.34 -0.01    -0.006 A 
DOCKED: ATOM      7  C3A HEM A1501      54.332  79.679   6.961 -0.35 -0.01    -0.007 A 
DOCKED: ATOM      8  C4A HEM A1501      54.556  78.638   7.917 -0.31 +0.06    +0.079 A 
DOCKED: ATOM      9  CMA HEM A1501      54.320  79.516   5.472 -0.49 +0.03    +0.032 C 
DOCKED: ATOM     10  C1B HEM A1501      54.985  76.264   8.417 -0.32 +0.04    +0.079 A 
DOCKED: ATOM     11  C2B HEM A1501      55.169  74.884   7.984 -0.45 -0.00    -0.003 A 
DOCKED: ATOM     12  C3B HEM A1501      55.365  74.174   9.125 -0.44 +0.01    +0.015 A 
DOCKED: ATOM     13  C4B HEM A1501      55.325  75.119  10.237 -0.34 +0.03    +0.083 A 
DOCKED: ATOM     14  CMB HEM A1501      55.129  74.420   6.554 -0.57 +0.02    +0.033 C 
DOCKED: ATOM     15  C1C HEM A1501      55.469  75.617  12.678 -0.32 +0.03    +0.079 A 
DOCKED: ATOM     16  C2C HEM A1501      55.748  75.227  14.033 -0.39 -0.00    -0.003 A 
DOCKED: ATOM     17  C3C HEM A1501      55.617  76.349  14.785 -0.40 +0.01    +0.015 A 
DOCKED: ATOM     18  C4C HEM A1501      55.242  77.437  13.861 -0.33 +0.04    +0.083 A 
DOCKED: ATOM     19  CMC HEM A1501      56.110  73.814  14.442 -0.54 +0.01    +0.033 C 
DOCKED: ATOM     20  C1D HEM A1501      54.625  79.875  13.320 -0.32 +0.05    +0.079 A 
DOCKED: ATOM     21  C2D HEM A1501      54.366  81.220  13.734 -0.39 -0.00    -0.007 A 
DOCKED: ATOM     22  C3D HEM A1501      54.134  81.932  12.601 -0.35 -0.01    -0.006 A 
DOCKED: ATOM     23  C4D HEM A1501      54.260  81.015  11.485 -0.23 +0.07    +0.079 A 
DOCKED: ATOM     24  CMD HEM A1501      54.357  81.732  15.119 -0.43 +0.02    +0.032 C 
DOCKED: ATOM     25  NA  HEM A1501      54.546  79.118   9.193 -0.18 -0.20    -0.246 N 
DOCKED: ATOM     26  NB  HEM A1501      55.071  76.366   9.785 -0.01 -0.12    -0.246 N 
DOCKED: ATOM     27  NC  HEM A1501      55.197  76.944  12.622 -0.14 -0.11    -0.246 N 
DOCKED: ATOM     28  ND  HEM A1501      54.561  79.777  11.958 -0.14 -0.18    -0.246 N 
DOCKED: ATOM     29 FE   HEM A1501      54.853  78.058  10.911 -0.07 +0.00    +0.000 Fe
DOCKED: ENDROOT
DOCKED: BRANCH  22  30
DOCKED: ATOM     30  CAD HEM A1501      53.819  83.380  12.581 -0.44 +0.05    +0.039 C 
DOCKED: BRANCH  30  31
DOCKED: ATOM     31  CBD HEM A1501      52.317  83.639  12.695 -0.43 +0.12    +0.102 C 
DOCKED: BRANCH  31  32
DOCKED: ATOM     32  CGD HEM A1501      51.991  84.942  13.400 -0.50 +0.27    +0.186 C 
DOCKED: ATOM     33  O1D HEM A1501      53.006  85.643  13.608 -0.46 -1.17    -0.647 OA
DOCKED: ATOM     34  O2D HEM A1501      50.768  85.298  13.703 -0.97 -0.89    -0.647 OA
DOCKED: ENDBRANCH  31  32
DOCKED: ENDBRANCH  30  31
DOCKED: ENDBRANCH  22  30
DOCKED: BRANCH   6  35
DOCKED: ATOM     35  CAA HEM A1501      53.917  82.138   7.051 -0.44 +0.06    +0.039 C 
DOCKED: BRANCH  35  36
DOCKED: ATOM     36  CBA HEM A1501      52.435  82.417   6.890 -0.57 +0.16    +0.102 C 
DOCKED: BRANCH  36  37
DOCKED: ATOM     37  CGA HEM A1501      52.120  83.727   6.221 -0.64 +0.36    +0.186 C 
DOCKED: ATOM     38  O1A HEM A1501      52.906  84.687   6.395 -1.10 -1.74    -0.647 OA
DOCKED: ATOM     39  O2A HEM A1501      51.114  83.790   5.484 -1.04 -1.33    -0.647 OA
DOCKED: ENDBRANCH  36  37
DOCKED: ENDBRANCH  35  36
DOCKED: ENDBRANCH   6  35
DOCKED: BRANCH  17  40
DOCKED: ATOM     40  CAC HEM A1501      55.793  76.499  16.235 -0.57 +0.00    +0.001 C 
DOCKED: ATOM     41  CBC HEM A1501      55.095  75.877  17.197 -0.66 +0.00    +0.000 C 
DOCKED: ENDBRANCH  17  40
DOCKED: BRANCH  12  42
DOCKED: ATOM     42  CAB HEM A1501      55.595  72.727   9.345 -0.52 +0.00    +0.001 C 
DOCKED: ATOM     43  CBB HEM A1501      54.829  71.689   9.073 -0.56 +0.00    +0.000 C 
DOCKED: ENDBRANCH  12  42
DOCKED: TORSDOF 8
DOCKED: TER
DOCKED: ENDMDL
________________________________________________________________________________


	BEGINNING GENETIC ALGORITHM DOCKING 34 of 100
Run: 34 Seed: 1218254545 1649601431 [ Run 34 of 100 GA/GALS ]
Beginning LAMARCKIAN GENETIC ALGORITHM (LGA), with a maximum of 2500000 energy evaluations.

Final-Value: -22.804


	FINAL GENETIC ALGORITHM DOCKED STATE
	_______________________________________________


Detailed state:  trans 54.380 78.895 10.552 quatxyzw -0.014498 -0.021405 0.010787 -0.999608 center 54.495 78.699 10.493 ntor 8 0.2101 -34.6799 14.8578 43.0493 -8.3133 -37.6687 -5.9782 -22.4260
State:	 54.380  78.895  10.552  -0.518 -0.764  0.385 -3.210      0.21  -34.68   14.86   43.05   -8.31  -37.67   -5.98  -22.43

DOCKED: MODEL       34
DOCKED: USER    Run = 34
DOCKED: USER    DPF = C:/Users/georg/Desktop/Dock/executables_autodock_tools/receptor.dpf
DOCKED: USER  
DOCKED: USER    Estimated Free Energy of Binding    =  -19.79 kcal/mol  [=(1)+(2)+(3)-(4)]
DOCKED: USER    Estimated Inhibition Constant, Ki   =    3.11 fM (femtomolar)  [Temperature = 298.15 K]
DOCKED: USER    
DOCKED: USER    (1) Final Intermolecular Energy     =  -22.18 kcal/mol
DOCKED: USER        vdW + Hbond + desolv Energy     =  -17.91 kcal/mol
DOCKED: USER        Electrostatic Energy            =   -4.26 kcal/mol
DOCKED: USER    (2) Final Total Internal Energy     =   -0.63 kcal/mol
DOCKED: USER    (3) Torsional Free Energy           =   +2.39 kcal/mol
DOCKED: USER    (4) Unbound System's Energy  [=(2)] =   -0.63 kcal/mol
DOCKED: USER    
DOCKED: USER    
DOCKED: USER    NEWDPF move ligand.pdbqt
DOCKED: USER    NEWDPF about 54.495000 78.699000 10.493000
DOCKED: USER    NEWDPF tran0 54.379961 78.894519 10.552273
DOCKED: USER    NEWDPF quaternion0 -0.014498 -0.021405 0.010787 -0.999608
DOCKED: USER    NEWDPF axisangle0 -0.517551 -0.764103 0.385082 -3.210466
DOCKED: USER    NEWDPF quat0 -0.517551 -0.764103 0.385082 -3.210466
DOCKED: USER    NEWDPF dihe0 0.21 -34.68 14.86 43.05 -8.31 -37.67 -5.98 -22.43 
DOCKED: USER  keepresnum = 1 
DOCKED: USER  
DOCKED: REMARK  8 active torsions:
DOCKED: REMARK  status: ('A' for Active; 'I' for Inactive)
DOCKED: REMARK    1  A    between atoms: C2A_3624  and  CAA_3628 
DOCKED: REMARK    2  A    between atoms: CAA_3628  and  CBA_3629 
DOCKED: REMARK    3  A    between atoms: CBA_3629  and  CGA_3630 
DOCKED: REMARK    4  A    between atoms: C3B_3635  and  CAB_3638 
DOCKED: REMARK    5  A    between atoms: C3C_3642  and  CAC_3645 
DOCKED: REMARK    6  A    between atoms: C3D_3649  and  CAD_3652 
DOCKED: REMARK    7  A    between atoms: CAD_3652  and  CBD_3653 
DOCKED: REMARK    8  A    between atoms: CBD_3653  and  CGD_3654 
DOCKED: USER                              x       y       z     vdW  Elec       q    Type
DOCKED: USER                           _______ _______ _______ _____ _____    ______ ____
DOCKED: ROOT
DOCKED: ATOM      1  CHA HEM A1501      54.282  81.212  10.069 -0.28 +0.04    +0.038 A 
DOCKED: ATOM      2  CHB HEM A1501      55.027  78.678  14.090 -0.39 +0.02    +0.038 A 
DOCKED: ATOM      3  CHC HEM A1501      55.469  74.637  11.491 -0.40 +0.01    +0.038 A 
DOCKED: ATOM      4  CHD HEM A1501      54.657  77.163   7.469 -0.38 +0.03    +0.038 A 
DOCKED: ATOM      5  C1A HEM A1501      54.420  80.874  11.412 -0.23 +0.07    +0.079 A 
DOCKED: ATOM      6  C2A HEM A1501      54.318  81.779  12.561 -0.33 -0.01    -0.006 A 
DOCKED: ATOM      7  C3A HEM A1501      54.530  81.056  13.651 -0.37 -0.00    -0.007 A 
DOCKED: ATOM      8  C4A HEM A1501      54.752  79.711  13.216 -0.31 +0.05    +0.079 A 
DOCKED: ATOM      9  CMA HEM A1501      54.519  81.528  15.073 -0.47 +0.02    +0.032 C 
DOCKED: ATOM     10  C1B HEM A1501      55.244  77.357  13.746 -0.33 +0.03    +0.079 A 
DOCKED: ATOM     11  C2B HEM A1501      55.551  76.305  14.707 -0.40 -0.00    -0.003 A 
DOCKED: ATOM     12  C3B HEM A1501      55.690  75.173  13.968 -0.38 +0.01    +0.015 A 
DOCKED: ATOM     13  C4B HEM A1501      55.444  75.532  12.575 -0.32 +0.03    +0.083 A 
DOCKED: ATOM     14  CMB HEM A1501      55.679  76.508  16.192 -0.54 +0.01    +0.033 C 
DOCKED: ATOM     15  C1C HEM A1501      55.263  74.909  10.165 -0.36 +0.03    +0.079 A 
DOCKED: ATOM     16  C2C HEM A1501      55.219  73.931   9.113 -0.46 -0.00    -0.003 A 
DOCKED: ATOM     17  C3C HEM A1501      54.974  74.618   7.967 -0.45 +0.01    +0.015 A 
DOCKED: ATOM     18  C4C HEM A1501      54.877  76.043   8.340 -0.35 +0.05    +0.083 A 
DOCKED: ATOM     19  CMC HEM A1501      55.419  72.446   9.337 -0.53 +0.01    +0.033 C 
DOCKED: ATOM     20  C1D HEM A1501      54.534  78.535   7.804 -0.31 +0.06    +0.079 A 
DOCKED: ATOM     21  C2D HEM A1501      54.308  79.592   6.865 -0.36 -0.01    -0.007 A 
DOCKED: ATOM     22  C3D HEM A1501      54.203  80.734   7.592 -0.34 -0.01    -0.006 A 
DOCKED: ATOM     23  C4D HEM A1501      54.359  80.370   8.987 -0.26 +0.08    +0.079 A 
DOCKED: ATOM     24  CMD HEM A1501      54.206  79.463   5.398 -0.49 +0.03    +0.032 C 
DOCKED: ATOM     25  NA  HEM A1501      54.657  79.601  11.860 -0.12 -0.18    -0.246 N 
DOCKED: ATOM     26  NB  HEM A1501      55.202  76.856  12.466 -0.12 -0.11    -0.246 N 
DOCKED: ATOM     27  NC  HEM A1501      55.031  76.146   9.662 -0.09 -0.12    -0.246 N 
DOCKED: ATOM     28  ND  HEM A1501      54.555  79.028   9.078 -0.18 -0.20    -0.246 N 
DOCKED: ATOM     29 FE   HEM A1501      54.851  77.901  10.745 -0.07 +0.00    +0.000 Fe
DOCKED: ENDROOT
DOCKED: BRANCH  22  30
DOCKED: ATOM     30  CAD HEM A1501      53.969  82.073   7.003 -0.43 +0.05    +0.039 C 
DOCKED: BRANCH  30  31
DOCKED: ATOM     31  CBD HEM A1501      52.503  82.282   6.623 -0.57 +0.15    +0.102 C 
DOCKED: BRANCH  31  32
DOCKED: ATOM     32  CGD HEM A1501      52.207  83.696   6.159 -0.64 +0.35    +0.186 C 
DOCKED: ATOM     33  O1D HEM A1501      51.176  83.766   5.456 -1.05 -1.31    -0.647 OA
DOCKED: ATOM     34  O2D HEM A1501      52.937  84.726   6.511 -1.09 -1.81    -0.647 OA
DOCKED: ENDBRANCH  31  32
DOCKED: ENDBRANCH  30  31
DOCKED: ENDBRANCH  22  30
DOCKED: BRANCH   6  35
DOCKED: ATOM     35  CAA HEM A1501      54.026  83.239  12.551 -0.41 +0.05    +0.039 C 
DOCKED: BRANCH  35  36
DOCKED: ATOM     36  CBA HEM A1501      52.557  83.515  12.297 -0.43 +0.13    +0.102 C 
DOCKED: BRANCH  36  37
DOCKED: ATOM     37  CGA HEM A1501      51.977  84.609  13.151 -0.48 +0.25    +0.186 C 
DOCKED: ATOM     38  O1A HEM A1501      50.855  84.422  13.676 -0.29 -0.79    -0.647 OA
DOCKED: ATOM     39  O2A HEM A1501      52.656  85.639  13.338 -0.47 -1.28    -0.647 OA
DOCKED: ENDBRANCH  36  37
DOCKED: ENDBRANCH  35  36
DOCKED: ENDBRANCH   6  35
DOCKED: BRANCH  17  40
DOCKED: ATOM     40  CAC HEM A1501      54.836  74.094   6.604 -0.59 +0.00    +0.001 C 
DOCKED: ATOM     41  CBC HEM A1501      53.757  74.191   5.811 -0.66 +0.00    +0.000 C 
DOCKED: ENDBRANCH  17  40
DOCKED: BRANCH  12  42
DOCKED: ATOM     42  CAB HEM A1501      56.014  73.784  14.366 -0.55 +0.00    +0.001 C 
DOCKED: ATOM     43  CBB HEM A1501      57.064  73.299  14.998 -0.62 +0.00    +0.000 C 
DOCKED: ENDBRANCH  12  42
DOCKED: TORSDOF 8
DOCKED: TER
DOCKED: ENDMDL
________________________________________________________________________________


	BEGINNING GENETIC ALGORITHM DOCKING 35 of 100
Run: 35 Seed: 506097127 759518756 [ Run 35 of 100 GA/GALS ]
Beginning LAMARCKIAN GENETIC ALGORITHM (LGA), with a maximum of 2500000 energy evaluations.

Final-Value: -23.055


	FINAL GENETIC ALGORITHM DOCKED STATE
	_______________________________________________


Detailed state:  trans 54.864 78.987 10.383 quatxyzw 0.198657 -0.954970 0.216602 0.040624 center 54.495 78.699 10.493 ntor 8 -167.4953 -41.5834 -162.0052 123.9673 -31.6778 1.3394 -145.3781 -164.6978
State:	 54.864  78.987  10.383   0.199 -0.956  0.217 175.344   -167.50  -41.58 -162.01  123.97  -31.68    1.34 -145.38 -164.70

DOCKED: MODEL       35
DOCKED: USER    Run = 35
DOCKED: USER    DPF = C:/Users/georg/Desktop/Dock/executables_autodock_tools/receptor.dpf
DOCKED: USER  
DOCKED: USER    Estimated Free Energy of Binding    =  -20.11 kcal/mol  [=(1)+(2)+(3)-(4)]
DOCKED: USER    Estimated Inhibition Constant, Ki   =    1.82 fM (femtomolar)  [Temperature = 298.15 K]
DOCKED: USER    
DOCKED: USER    (1) Final Intermolecular Energy     =  -22.50 kcal/mol
DOCKED: USER        vdW + Hbond + desolv Energy     =  -18.23 kcal/mol
DOCKED: USER        Electrostatic Energy            =   -4.26 kcal/mol
DOCKED: USER    (2) Final Total Internal Energy     =   -0.56 kcal/mol
DOCKED: USER    (3) Torsional Free Energy           =   +2.39 kcal/mol
DOCKED: USER    (4) Unbound System's Energy  [=(2)] =   -0.56 kcal/mol
DOCKED: USER    
DOCKED: USER    
DOCKED: USER    NEWDPF move ligand.pdbqt
DOCKED: USER    NEWDPF about 54.495000 78.699000 10.493000
DOCKED: USER    NEWDPF tran0 54.863562 78.987139 10.383109
DOCKED: USER    NEWDPF quaternion0 0.198657 -0.954970 0.216602 0.040624
DOCKED: USER    NEWDPF axisangle0 0.198821 -0.955759 0.216781 175.343540
DOCKED: USER    NEWDPF quat0 0.198821 -0.955759 0.216781 175.343540
DOCKED: USER    NEWDPF dihe0 -167.50 -41.58 -162.01 123.97 -31.68 1.34 -145.38 -164.70 
DOCKED: USER  keepresnum = 1 
DOCKED: USER  
DOCKED: REMARK  8 active torsions:
DOCKED: REMARK  status: ('A' for Active; 'I' for Inactive)
DOCKED: REMARK    1  A    between atoms: C2A_3624  and  CAA_3628 
DOCKED: REMARK    2  A    between atoms: CAA_3628  and  CBA_3629 
DOCKED: REMARK    3  A    between atoms: CBA_3629  and  CGA_3630 
DOCKED: REMARK    4  A    between atoms: C3B_3635  and  CAB_3638 
DOCKED: REMARK    5  A    between atoms: C3C_3642  and  CAC_3645 
DOCKED: REMARK    6  A    between atoms: C3D_3649  and  CAD_3652 
DOCKED: REMARK    7  A    between atoms: CAD_3652  and  CBD_3653 
DOCKED: REMARK    8  A    between atoms: CBD_3653  and  CGD_3654 
DOCKED: USER                              x       y       z     vdW  Elec       q    Type
DOCKED: USER                           _______ _______ _______ _____ _____    ______ ____
DOCKED: ROOT
DOCKED: ATOM      1  CHA HEM A1501      54.014  81.107   9.752 -0.29 +0.04    +0.038 A 
DOCKED: ATOM      2  CHB HEM A1501      54.830  77.005   7.374 -0.36 +0.02    +0.038 A 
DOCKED: ATOM      3  CHC HEM A1501      55.599  74.710  11.548 -0.39 +0.01    +0.038 A 
DOCKED: ATOM      4  CHD HEM A1501      54.847  78.832  13.926 -0.39 +0.02    +0.038 A 
DOCKED: ATOM      5  C1A HEM A1501      54.197  80.191   8.721 -0.28 +0.08    +0.079 A 
DOCKED: ATOM      6  C2A HEM A1501      54.104  80.458   7.282 -0.35 -0.01    -0.006 A 
DOCKED: ATOM      7  C3A HEM A1501      54.330  79.313   6.654 -0.37 -0.01    -0.007 A 
DOCKED: ATOM      8  C4A HEM A1501      54.574  78.331   7.666 -0.32 +0.06    +0.079 A 
DOCKED: ATOM      9  CMA HEM A1501      54.354  79.075   5.175 -0.51 +0.02    +0.032 C 
DOCKED: ATOM     10  C1B HEM A1501      55.083  76.004   8.294 -0.33 +0.04    +0.079 A 
DOCKED: ATOM     11  C2B HEM A1501      55.329  74.613   7.936 -0.45 -0.00    -0.003 A 
DOCKED: ATOM     12  C3B HEM A1501      55.529  73.969   9.115 -0.44 +0.01    +0.015 A 
DOCKED: ATOM     13  C4B HEM A1501      55.431  74.967  10.176 -0.36 +0.03    +0.083 A 
DOCKED: ATOM     14  CMB HEM A1501      55.336  74.076   6.531 -0.56 +0.01    +0.033 C 
DOCKED: ATOM     15  C1C HEM A1501      55.506  75.592  12.590 -0.32 +0.03    +0.079 A 
DOCKED: ATOM     16  C2C HEM A1501      55.773  75.282  13.968 -0.40 -0.00    -0.003 A 
DOCKED: ATOM     17  C3C HEM A1501      55.583  76.435  14.660 -0.40 +0.01    +0.015 A 
DOCKED: ATOM     18  C4C HEM A1501      55.185  77.460  13.675 -0.33 +0.04    +0.083 A 
DOCKED: ATOM     19  CMC HEM A1501      56.180  73.907  14.456 -0.54 +0.01    +0.033 C 
DOCKED: ATOM     20  C1D HEM A1501      54.487  79.840  12.998 -0.30 +0.05    +0.079 A 
DOCKED: ATOM     21  C2D HEM A1501      54.168  81.194  13.338 -0.38 -0.01    -0.007 A 
DOCKED: ATOM     22  C3D HEM A1501      53.932  81.838  12.166 -0.36 -0.01    -0.006 A 
DOCKED: ATOM     23  C4D HEM A1501      54.115  80.871  11.101 -0.20 +0.07    +0.079 A 
DOCKED: ATOM     24  CMD HEM A1501      54.112  81.774  14.695 -0.43 +0.02    +0.032 C 
DOCKED: ATOM     25  NA  HEM A1501      54.520  78.874   8.915 -0.19 -0.20    -0.246 N 
DOCKED: ATOM     26  NB  HEM A1501      55.138  76.178   9.656 -0.15 -0.12    -0.246 N 
DOCKED: ATOM     27  NC  HEM A1501      55.184  76.903  12.462 -0.11 -0.11    -0.246 N 
DOCKED: ATOM     28  ND  HEM A1501      54.454  79.671  11.642 -0.11 -0.19    -0.246 N 
DOCKED: ATOM     29 FE   HEM A1501      54.832  77.915  10.690 -0.07 +0.00    +0.000 Fe
DOCKED: ENDROOT
DOCKED: BRANCH  22  30
DOCKED: ATOM     30  CAD HEM A1501      53.561  83.270  12.067 -0.37 +0.05    +0.039 C 
DOCKED: BRANCH  30  31
DOCKED: ATOM     31  CBD HEM A1501      52.249  83.571  12.789 -0.43 +0.12    +0.102 C 
DOCKED: BRANCH  31  32
DOCKED: ATOM     32  CGD HEM A1501      52.183  84.987  13.331 -0.45 +0.28    +0.186 C 
DOCKED: ATOM     33  O1D HEM A1501      53.310  85.518  13.428 -0.44 -1.18    -0.647 OA
DOCKED: ATOM     34  O2D HEM A1501      51.052  85.586  13.613 -0.79 -1.02    -0.647 OA
DOCKED: ENDBRANCH  31  32
DOCKED: ENDBRANCH  30  31
DOCKED: ENDBRANCH  22  30
DOCKED: BRANCH   6  35
DOCKED: ATOM     35  CAA HEM A1501      53.819  81.755   6.610 -0.46 +0.05    +0.039 C 
DOCKED: BRANCH  35  36
DOCKED: ATOM     36  CBA HEM A1501      52.409  82.237   6.895 -0.56 +0.15    +0.102 C 
DOCKED: BRANCH  36  37
DOCKED: ATOM     37  CGA HEM A1501      52.078  83.576   6.296 -0.61 +0.35    +0.186 C 
DOCKED: ATOM     38  O1A HEM A1501      52.823  84.547   6.563 -1.17 -1.69    -0.647 OA
DOCKED: ATOM     39  O2A HEM A1501      51.103  83.653   5.520 -1.00 -1.33    -0.647 OA
DOCKED: ENDBRANCH  36  37
DOCKED: ENDBRANCH  35  36
DOCKED: ENDBRANCH   6  35
DOCKED: BRANCH  17  40
DOCKED: ATOM     40  CAC HEM A1501      55.724  76.665  16.103 -0.55 +0.00    +0.001 C 
DOCKED: ATOM     41  CBC HEM A1501      55.210  75.915  17.090 -0.66 +0.00    +0.000 C 
DOCKED: ENDBRANCH  17  40
DOCKED: BRANCH  12  42
DOCKED: ATOM     42  CAB HEM A1501      55.810  72.545   9.413 -0.45 +0.00    +0.001 C 
DOCKED: ATOM     43  CBB HEM A1501      55.064  71.473   9.239 -0.57 +0.00    +0.000 C 
DOCKED: ENDBRANCH  12  42
DOCKED: TORSDOF 8
DOCKED: TER
DOCKED: ENDMDL
________________________________________________________________________________


	BEGINNING GENETIC ALGORITHM DOCKING 36 of 100
Run: 36 Seed: 1342770050 1502666343 [ Run 36 of 100 GA/GALS ]
Beginning LAMARCKIAN GENETIC ALGORITHM (LGA), with a maximum of 2500000 energy evaluations.

Final-Value: -23.300


	FINAL GENETIC ALGORITHM DOCKED STATE
	_______________________________________________


Detailed state:  trans 54.942 78.805 10.527 quatxyzw 0.174596 -0.973424 0.146653 0.021317 center 54.495 78.699 10.493 ntor 8 106.8525 -116.1647 -128.3615 -173.7731 5.0941 -11.5829 -162.5738 135.1948
State:	 54.942  78.805  10.527   0.175 -0.974  0.147 177.557    106.85 -116.16 -128.36 -173.77    5.09  -11.58 -162.57  135.19

DOCKED: MODEL       36
DOCKED: USER    Run = 36
DOCKED: USER    DPF = C:/Users/georg/Desktop/Dock/executables_autodock_tools/receptor.dpf
DOCKED: USER  
DOCKED: USER    Estimated Free Energy of Binding    =  -20.47 kcal/mol  [=(1)+(2)+(3)-(4)]
DOCKED: USER    Estimated Inhibition Constant, Ki   =  988.40 aM (attomolar)  [Temperature = 298.15 K]
DOCKED: USER    
DOCKED: USER    (1) Final Intermolecular Energy     =  -22.86 kcal/mol
DOCKED: USER        vdW + Hbond + desolv Energy     =  -18.52 kcal/mol
DOCKED: USER        Electrostatic Energy            =   -4.34 kcal/mol
DOCKED: USER    (2) Final Total Internal Energy     =   -0.44 kcal/mol
DOCKED: USER    (3) Torsional Free Energy           =   +2.39 kcal/mol
DOCKED: USER    (4) Unbound System's Energy  [=(2)] =   -0.44 kcal/mol
DOCKED: USER    
DOCKED: USER    
DOCKED: USER    NEWDPF move ligand.pdbqt
DOCKED: USER    NEWDPF about 54.495000 78.699000 10.493000
DOCKED: USER    NEWDPF tran0 54.942443 78.805071 10.526550
DOCKED: USER    NEWDPF quaternion0 0.174596 -0.973424 0.146653 0.021317
DOCKED: USER    NEWDPF axisangle0 0.174636 -0.973645 0.146686 177.557085
DOCKED: USER    NEWDPF quat0 0.174636 -0.973645 0.146686 177.557085
DOCKED: USER    NEWDPF dihe0 106.85 -116.16 -128.36 -173.77 5.09 -11.58 -162.57 135.19 
DOCKED: USER  keepresnum = 1 
DOCKED: USER  
DOCKED: REMARK  8 active torsions:
DOCKED: REMARK  status: ('A' for Active; 'I' for Inactive)
DOCKED: REMARK    1  A    between atoms: C2A_3624  and  CAA_3628 
DOCKED: REMARK    2  A    between atoms: CAA_3628  and  CBA_3629 
DOCKED: REMARK    3  A    between atoms: CBA_3629  and  CGA_3630 
DOCKED: REMARK    4  A    between atoms: C3B_3635  and  CAB_3638 
DOCKED: REMARK    5  A    between atoms: C3C_3642  and  CAC_3645 
DOCKED: REMARK    6  A    between atoms: C3D_3649  and  CAD_3652 
DOCKED: REMARK    7  A    between atoms: CAD_3652  and  CBD_3653 
DOCKED: REMARK    8  A    between atoms: CBD_3653  and  CGD_3654 
DOCKED: USER                              x       y       z     vdW  Elec       q    Type
DOCKED: USER                           _______ _______ _______ _____ _____    ______ ____
DOCKED: ROOT
DOCKED: ATOM      1  CHA HEM A1501      54.189  81.032  10.237 -0.27 +0.04    +0.038 A 
DOCKED: ATOM      2  CHB HEM A1501      54.635  77.259   7.287 -0.38 +0.03    +0.038 A 
DOCKED: ATOM      3  CHC HEM A1501      55.481  74.376  11.063 -0.41 +0.01    +0.038 A 
DOCKED: ATOM      4  CHD HEM A1501      55.100  78.167  14.012 -0.38 +0.02    +0.038 A 
DOCKED: ATOM      5  C1A HEM A1501      54.263  80.259   9.083 -0.26 +0.08    +0.079 A 
DOCKED: ATOM      6  C2A HEM A1501      54.112  80.725   7.701 -0.35 -0.01    -0.006 A 
DOCKED: ATOM      7  C3A HEM A1501      54.236  79.666   6.913 -0.36 -0.01    -0.007 A 
DOCKED: ATOM      8  C4A HEM A1501      54.474  78.543   7.768 -0.32 +0.06    +0.079 A 
DOCKED: ATOM      9  CMA HEM A1501      54.170  79.632   5.416 -0.49 +0.03    +0.032 C 
DOCKED: ATOM     10  C1B HEM A1501      54.876  76.129   8.048 -0.36 +0.05    +0.079 A 
DOCKED: ATOM     11  C2B HEM A1501      55.019  74.789   7.492 -0.48 -0.00    -0.003 A 
DOCKED: ATOM     12  C3B HEM A1501      55.241  73.980   8.561 -0.44 +0.01    +0.015 A 
DOCKED: ATOM     13  C4B HEM A1501      55.257  74.827   9.750 -0.37 +0.03    +0.083 A 
DOCKED: ATOM     14  CMB HEM A1501      54.921  74.450   6.030 -0.58 +0.02    +0.033 C 
DOCKED: ATOM     15  C1C HEM A1501      55.495  75.111  12.217 -0.34 +0.03    +0.079 A 
DOCKED: ATOM     16  C2C HEM A1501      55.814  74.601  13.523 -0.42 -0.00    -0.003 A 
DOCKED: ATOM     17  C3C HEM A1501      55.729  75.657  14.373 -0.38 +0.01    +0.015 A 
DOCKED: ATOM     18  C4C HEM A1501      55.343  76.826  13.559 -0.31 +0.04    +0.083 A 
DOCKED: ATOM     19  CMC HEM A1501      56.163  73.153  13.797 -0.53 +0.01    +0.033 C 
DOCKED: ATOM     20  C1D HEM A1501      54.753  79.310  13.250 -0.31 +0.05    +0.079 A 
DOCKED: ATOM     21  C2D HEM A1501      54.534  80.619  13.786 -0.40 -0.00    -0.007 A 
DOCKED: ATOM     22  C3D HEM A1501      54.276  81.429  12.728 -0.34 -0.00    -0.006 A 
DOCKED: ATOM     23  C4D HEM A1501      54.346  80.610  11.534 -0.20 +0.07    +0.079 A 
DOCKED: ATOM     24  CMD HEM A1501      54.582  81.010  15.210 -0.43 +0.01    +0.032 C 
DOCKED: ATOM     25  NA  HEM A1501      54.517  78.912   9.080 -0.18 -0.20    -0.246 N 
DOCKED: ATOM     26  NB  HEM A1501      55.011  76.111   9.415 -0.16 -0.12    -0.246 N 
DOCKED: ATOM     27  NC  HEM A1501      55.245  76.442  12.285 -0.13 -0.11    -0.246 N 
DOCKED: ATOM     28  ND  HEM A1501      54.640  79.331  11.888 -0.09 -0.17    -0.246 N 
DOCKED: ATOM     29 FE   HEM A1501      54.863  77.704  10.689 -0.07 +0.00    +0.000 Fe
DOCKED: ENDROOT
DOCKED: BRANCH  22  30
DOCKED: ATOM     30  CAD HEM A1501      53.987  82.878  12.843 -0.41 +0.04    +0.039 C 
DOCKED: BRANCH  30  31
DOCKED: ATOM     31  CBD HEM A1501      52.550  83.140  13.294 -0.51 +0.10    +0.102 C 
DOCKED: BRANCH  31  32
DOCKED: ATOM     32  CGD HEM A1501      52.175  84.609  13.255 -0.50 +0.25    +0.186 C 
DOCKED: ATOM     33  O1D HEM A1501      52.985  85.295  12.593 -0.64 -1.35    -0.647 OA
DOCKED: ATOM     34  O2D HEM A1501      51.089  85.079  13.816 -0.62 -0.87    -0.647 OA
DOCKED: ENDBRANCH  31  32
DOCKED: ENDBRANCH  30  31
DOCKED: ENDBRANCH  22  30
DOCKED: BRANCH   6  35
DOCKED: ATOM     35  CAA HEM A1501      53.870  82.115   7.227 -0.44 +0.06    +0.039 C 
DOCKED: BRANCH  35  36
DOCKED: ATOM     36  CBA HEM A1501      52.657  82.195   6.321 -0.57 +0.15    +0.102 C 
DOCKED: BRANCH  36  37
DOCKED: ATOM     37  CGA HEM A1501      52.136  83.590   6.105 -0.63 +0.35    +0.186 C 
DOCKED: ATOM     38  O1A HEM A1501      52.805  84.550   6.553 -1.16 -1.68    -0.647 OA
DOCKED: ATOM     39  O2A HEM A1501      51.084  83.735   5.449 -1.06 -1.33    -0.647 OA
DOCKED: ENDBRANCH  36  37
DOCKED: ENDBRANCH  35  36
DOCKED: ENDBRANCH   6  35
DOCKED: BRANCH  17  40
DOCKED: ATOM     40  CAC HEM A1501      55.958  75.679  15.822 -0.54 +0.00    +0.001 C 
DOCKED: ATOM     41  CBC HEM A1501      55.184  76.265  16.749 -0.60 +0.00    +0.000 C 
DOCKED: ENDBRANCH  17  40
DOCKED: BRANCH  12  42
DOCKED: ATOM     42  CAB HEM A1501      55.452  72.517   8.648 -0.53 +0.00    +0.001 C 
DOCKED: ATOM     43  CBB HEM A1501      55.008  71.641   9.527 -0.57 +0.00    +0.000 C 
DOCKED: ENDBRANCH  12  42
DOCKED: TORSDOF 8
DOCKED: TER
DOCKED: ENDMDL
________________________________________________________________________________


	BEGINNING GENETIC ALGORITHM DOCKING 37 of 100
Run: 37 Seed: 295850931 1818841686 [ Run 37 of 100 GA/GALS ]
Beginning LAMARCKIAN GENETIC ALGORITHM (LGA), with a maximum of 2500000 energy evaluations.

Final-Value: -23.067


	FINAL GENETIC ALGORITHM DOCKED STATE
	_______________________________________________


Detailed state:  trans 54.920 78.833 10.225 quatxyzw -0.181083 0.966011 -0.182656 -0.025842 center 54.495 78.699 10.493 ntor 8 -161.6733 -100.9452 179.9102 137.7650 -9.1143 0.5183 -140.1237 -179.5803
State:	 54.920  78.833  10.225  -0.181  0.966 -0.183 -177.038   -161.67 -100.95  179.91  137.77   -9.11    0.52 -140.12 -179.58

DOCKED: MODEL       37
DOCKED: USER    Run = 37
DOCKED: USER    DPF = C:/Users/georg/Desktop/Dock/executables_autodock_tools/receptor.dpf
DOCKED: USER  
DOCKED: USER    Estimated Free Energy of Binding    =  -20.19 kcal/mol  [=(1)+(2)+(3)-(4)]
DOCKED: USER    Estimated Inhibition Constant, Ki   =    1.58 fM (femtomolar)  [Temperature = 298.15 K]
DOCKED: USER    
DOCKED: USER    (1) Final Intermolecular Energy     =  -22.58 kcal/mol
DOCKED: USER        vdW + Hbond + desolv Energy     =  -18.28 kcal/mol
DOCKED: USER        Electrostatic Energy            =   -4.30 kcal/mol
DOCKED: USER    (2) Final Total Internal Energy     =   -0.49 kcal/mol
DOCKED: USER    (3) Torsional Free Energy           =   +2.39 kcal/mol
DOCKED: USER    (4) Unbound System's Energy  [=(2)] =   -0.49 kcal/mol
DOCKED: USER    
DOCKED: USER    
DOCKED: USER    NEWDPF move ligand.pdbqt
DOCKED: USER    NEWDPF about 54.495000 78.699000 10.493000
DOCKED: USER    NEWDPF tran0 54.919956 78.832686 10.225233
DOCKED: USER    NEWDPF quaternion0 -0.181083 0.966011 -0.182656 -0.025842
DOCKED: USER    NEWDPF axisangle0 -0.181144 0.966334 -0.182717 -177.038340
DOCKED: USER    NEWDPF quat0 -0.181144 0.966334 -0.182717 -177.038340
DOCKED: USER    NEWDPF dihe0 -161.67 -100.95 179.91 137.77 -9.11 0.52 -140.12 -179.58 
DOCKED: USER  keepresnum = 1 
DOCKED: USER  
DOCKED: REMARK  8 active torsions:
DOCKED: REMARK  status: ('A' for Active; 'I' for Inactive)
DOCKED: REMARK    1  A    between atoms: C2A_3624  and  CAA_3628 
DOCKED: REMARK    2  A    between atoms: CAA_3628  and  CBA_3629 
DOCKED: REMARK    3  A    between atoms: CBA_3629  and  CGA_3630 
DOCKED: REMARK    4  A    between atoms: C3B_3635  and  CAB_3638 
DOCKED: REMARK    5  A    between atoms: C3C_3642  and  CAC_3645 
DOCKED: REMARK    6  A    between atoms: C3D_3649  and  CAD_3652 
DOCKED: REMARK    7  A    between atoms: CAD_3652  and  CBD_3653 
DOCKED: REMARK    8  A    between atoms: CBD_3653  and  CGD_3654 
DOCKED: USER                              x       y       z     vdW  Elec       q    Type
DOCKED: USER                           _______ _______ _______ _____ _____    ______ ____
DOCKED: ROOT
DOCKED: ATOM      1  CHA HEM A1501      54.141  81.022   9.763 -0.29 +0.04    +0.038 A 
DOCKED: ATOM      2  CHB HEM A1501      54.701  77.056   7.098 -0.39 +0.03    +0.038 A 
DOCKED: ATOM      3  CHC HEM A1501      55.511  74.462  11.085 -0.40 +0.01    +0.038 A 
DOCKED: ATOM      4  CHD HEM A1501      55.016  78.446  13.749 -0.37 +0.02    +0.038 A 
DOCKED: ATOM      5  C1A HEM A1501      54.249  80.170   8.669 -0.28 +0.08    +0.079 A 
DOCKED: ATOM      6  C2A HEM A1501      54.120  80.534   7.255 -0.35 -0.01    -0.006 A 
DOCKED: ATOM      7  C3A HEM A1501      54.275  79.425   6.547 -0.38 -0.01    -0.007 A 
DOCKED: ATOM      8  C4A HEM A1501      54.512  78.369   7.483 -0.32 +0.06    +0.079 A 
DOCKED: ATOM      9  CMA HEM A1501      54.239  79.284   5.055 -0.51 +0.02    +0.032 C 
DOCKED: ATOM     10  C1B HEM A1501      54.942  75.987   7.942 -0.36 +0.04    +0.079 A 
DOCKED: ATOM     11  C2B HEM A1501      55.115  74.614   7.486 -0.48 -0.00    -0.003 A 
DOCKED: ATOM     12  C3B HEM A1501      55.327  73.886   8.613 -0.44 +0.01    +0.015 A 
DOCKED: ATOM     13  C4B HEM A1501      55.308  74.815   9.739 -0.37 +0.03    +0.083 A 
DOCKED: ATOM     14  CMB HEM A1501      55.052  74.170   6.050 -0.58 +0.02    +0.033 C 
DOCKED: ATOM     15  C1C HEM A1501      55.491  75.276  12.185 -0.34 +0.03    +0.079 A 
DOCKED: ATOM     16  C2C HEM A1501      55.790  74.866  13.529 -0.41 -0.00    -0.003 A 
DOCKED: ATOM     17  C3C HEM A1501      55.673  75.977  14.300 -0.38 +0.01    +0.015 A 
DOCKED: ATOM     18  C4C HEM A1501      55.287  77.080  13.398 -0.30 +0.04    +0.083 A 
DOCKED: ATOM     19  CMC HEM A1501      56.155  73.446  13.912 -0.53 +0.01    +0.033 C 
DOCKED: ATOM     20  C1D HEM A1501      54.668  79.526  12.902 -0.27 +0.05    +0.079 A 
DOCKED: ATOM     21  C2D HEM A1501      54.419  80.866  13.339 -0.37 -0.00    -0.007 A 
DOCKED: ATOM     22  C3D HEM A1501      54.172  81.595  12.221 -0.33 -0.01    -0.006 A 
DOCKED: ATOM     23  C4D HEM A1501      54.277  80.694  11.090 -0.19 +0.07    +0.079 A 
DOCKED: ATOM     24  CMD HEM A1501      54.433  81.358  14.732 -0.47 +0.02    +0.032 C 
DOCKED: ATOM     25  NA  HEM A1501      54.522  78.831   8.767 -0.20 -0.20    -0.246 N 
DOCKED: ATOM     26  NB  HEM A1501      55.050  76.069   9.310 -0.20 -0.12    -0.246 N 
DOCKED: ATOM     27  NC  HEM A1501      55.221  76.605  12.153 -0.07 -0.11    -0.246 N 
DOCKED: ATOM     28  ND  HEM A1501      54.582  79.449  11.540 -0.07 -0.18    -0.246 N 
DOCKED: ATOM     29 FE   HEM A1501      54.853  77.744  10.464 -0.07 +0.00    +0.000 Fe
DOCKED: ENDROOT
DOCKED: BRANCH  22  30
DOCKED: ATOM     30  CAD HEM A1501      53.859  83.044  12.228 -0.42 +0.05    +0.039 C 
DOCKED: BRANCH  30  31
DOCKED: ATOM     31  CBD HEM A1501      52.661  83.366  13.120 -0.52 +0.11    +0.102 C 
DOCKED: BRANCH  31  32
DOCKED: ATOM     32  CGD HEM A1501      52.425  84.856  13.280 -0.45 +0.27    +0.186 C 
DOCKED: ATOM     33  O1D HEM A1501      53.490  85.508  13.341 -0.46 -1.19    -0.647 OA
DOCKED: ATOM     34  O2D HEM A1501      51.227  85.387  13.299 -0.67 -1.00    -0.647 OA
DOCKED: ENDBRANCH  31  32
DOCKED: ENDBRANCH  30  31
DOCKED: ENDBRANCH  22  30
DOCKED: BRANCH   6  35
DOCKED: ATOM     35  CAA HEM A1501      53.868  81.883   6.679 -0.45 +0.05    +0.039 C 
DOCKED: BRANCH  35  36
DOCKED: ATOM     36  CBA HEM A1501      52.397  82.248   6.728 -0.57 +0.15    +0.102 C 
DOCKED: BRANCH  36  37
DOCKED: ATOM     37  CGA HEM A1501      52.086  83.635   6.235 -0.63 +0.35    +0.186 C 
DOCKED: ATOM     38  O1A HEM A1501      52.856  84.568   6.560 -1.16 -1.71    -0.647 OA
DOCKED: ATOM     39  O2A HEM A1501      51.099  83.791   5.487 -1.04 -1.34    -0.647 OA
DOCKED: ENDBRANCH  36  37
DOCKED: ENDBRANCH  35  36
DOCKED: ENDBRANCH   6  35
DOCKED: BRANCH  17  40
DOCKED: ATOM     40  CAC HEM A1501      55.872  76.106  15.748 -0.54 +0.00    +0.001 C 
DOCKED: ATOM     41  CBC HEM A1501      55.451  75.254  16.696 -0.60 +0.00    +0.000 C 
DOCKED: ENDBRANCH  17  40
DOCKED: BRANCH  12  42
DOCKED: ATOM     42  CAB HEM A1501      55.557  72.436   8.808 -0.52 +0.00    +0.001 C 
DOCKED: ATOM     43  CBB HEM A1501      54.918  71.563   9.562 -0.55 +0.00    +0.000 C 
DOCKED: ENDBRANCH  12  42
DOCKED: TORSDOF 8
DOCKED: TER
DOCKED: ENDMDL
________________________________________________________________________________


	BEGINNING GENETIC ALGORITHM DOCKING 38 of 100
Run: 38 Seed: 747505786 1839019298 [ Run 38 of 100 GA/GALS ]
Beginning LAMARCKIAN GENETIC ALGORITHM (LGA), with a maximum of 2500000 energy evaluations.

Final-Value: -23.351


	FINAL GENETIC ALGORITHM DOCKED STATE
	_______________________________________________


Detailed state:  trans 54.910 78.882 10.618 quatxyzw 0.165608 -0.974200 0.153319 -0.001581 center 54.495 78.699 10.493 ntor 8 136.0911 47.1353 -131.6282 9.7205 23.8741 -4.3795 -162.1143 132.7985
State:	 54.910  78.882  10.618   0.166 -0.974  0.153 -179.819    136.09   47.14 -131.63    9.72   23.87   -4.38 -162.11  132.80

DOCKED: MODEL       38
DOCKED: USER    Run = 38
DOCKED: USER    DPF = C:/Users/georg/Desktop/Dock/executables_autodock_tools/receptor.dpf
DOCKED: USER  
DOCKED: USER    Estimated Free Energy of Binding    =  -20.56 kcal/mol  [=(1)+(2)+(3)-(4)]
DOCKED: USER    Estimated Inhibition Constant, Ki   =  847.36 aM (attomolar)  [Temperature = 298.15 K]
DOCKED: USER    
DOCKED: USER    (1) Final Intermolecular Energy     =  -22.95 kcal/mol
DOCKED: USER        vdW + Hbond + desolv Energy     =  -18.52 kcal/mol
DOCKED: USER        Electrostatic Energy            =   -4.43 kcal/mol
DOCKED: USER    (2) Final Total Internal Energy     =   -0.40 kcal/mol
DOCKED: USER    (3) Torsional Free Energy           =   +2.39 kcal/mol
DOCKED: USER    (4) Unbound System's Energy  [=(2)] =   -0.40 kcal/mol
DOCKED: USER    
DOCKED: USER    
DOCKED: USER    NEWDPF move ligand.pdbqt
DOCKED: USER    NEWDPF about 54.495000 78.699000 10.493000
DOCKED: USER    NEWDPF tran0 54.910406 78.881809 10.618403
DOCKED: USER    NEWDPF quaternion0 0.165608 -0.974200 0.153319 -0.001581
DOCKED: USER    NEWDPF axisangle0 0.165608 -0.974201 0.153319 -179.818877
DOCKED: USER    NEWDPF quat0 0.165608 -0.974201 0.153319 -179.818877
DOCKED: USER    NEWDPF dihe0 136.09 47.14 -131.63 9.72 23.87 -4.38 -162.11 132.80 
DOCKED: USER  keepresnum = 1 
DOCKED: USER  
DOCKED: REMARK  8 active torsions:
DOCKED: REMARK  status: ('A' for Active; 'I' for Inactive)
DOCKED: REMARK    1  A    between atoms: C2A_3624  and  CAA_3628 
DOCKED: REMARK    2  A    between atoms: CAA_3628  and  CBA_3629 
DOCKED: REMARK    3  A    between atoms: CBA_3629  and  CGA_3630 
DOCKED: REMARK    4  A    between atoms: C3B_3635  and  CAB_3638 
DOCKED: REMARK    5  A    between atoms: C3C_3642  and  CAC_3645 
DOCKED: REMARK    6  A    between atoms: C3D_3649  and  CAD_3652 
DOCKED: REMARK    7  A    between atoms: CAD_3652  and  CBD_3653 
DOCKED: REMARK    8  A    between atoms: CBD_3653  and  CGD_3654 
DOCKED: USER                              x       y       z     vdW  Elec       q    Type
DOCKED: USER                           _______ _______ _______ _____ _____    ______ ____
DOCKED: ROOT
DOCKED: ATOM      1  CHA HEM A1501      54.200  81.121  10.312 -0.27 +0.04    +0.038 A 
DOCKED: ATOM      2  CHB HEM A1501      54.437  77.280   7.426 -0.40 +0.03    +0.038 A 
DOCKED: ATOM      3  CHC HEM A1501      55.362  74.452  11.225 -0.40 +0.01    +0.038 A 
DOCKED: ATOM      4  CHD HEM A1501      55.191  78.310  14.107 -0.38 +0.02    +0.038 A 
DOCKED: ATOM      5  C1A HEM A1501      54.210  80.323   9.173 -0.26 +0.08    +0.079 A 
DOCKED: ATOM      6  C2A HEM A1501      54.015  80.765   7.788 -0.36 -0.01    -0.006 A 
DOCKED: ATOM      7  C3A HEM A1501      54.082  79.689   7.018 -0.37 -0.01    -0.007 A 
DOCKED: ATOM      8  C4A HEM A1501      54.326  78.577   7.886 -0.33 +0.06    +0.079 A 
DOCKED: ATOM      9  CMA HEM A1501      53.955  79.626   5.527 -0.47 +0.03    +0.032 C 
DOCKED: ATOM     10  C1B HEM A1501      54.679  76.160   8.200 -0.36 +0.05    +0.079 A 
DOCKED: ATOM     11  C2B HEM A1501      54.768  74.806   7.668 -0.47 -0.00    -0.003 A 
DOCKED: ATOM     12  C3B HEM A1501      55.013  74.013   8.743 -0.45 +0.01    +0.015 A 
DOCKED: ATOM     13  C4B HEM A1501      55.097  74.882   9.913 -0.36 +0.03    +0.083 A 
DOCKED: ATOM     14  CMB HEM A1501      54.604  74.440   6.218 -0.59 +0.02    +0.033 C 
DOCKED: ATOM     15  C1C HEM A1501      55.440  75.209  12.363 -0.34 +0.03    +0.079 A 
DOCKED: ATOM     16  C2C HEM A1501      55.798  74.718  13.665 -0.42 -0.00    -0.003 A 
DOCKED: ATOM     17  C3C HEM A1501      55.773  75.792  14.495 -0.38 +0.01    +0.015 A 
DOCKED: ATOM     18  C4C HEM A1501      55.383  76.954  13.673 -0.31 +0.04    +0.083 A 
DOCKED: ATOM     19  CMC HEM A1501      56.123  73.267  13.955 -0.55 +0.01    +0.033 C 
DOCKED: ATOM     20  C1D HEM A1501      54.842  79.446  13.336 -0.31 +0.05    +0.079 A 
DOCKED: ATOM     21  C2D HEM A1501      54.676  80.770  13.853 -0.38 -0.00    -0.007 A 
DOCKED: ATOM     22  C3D HEM A1501      54.397  81.565  12.789 -0.32 -0.00    -0.006 A 
DOCKED: ATOM     23  C4D HEM A1501      54.398  80.720  11.610 -0.22 +0.07    +0.079 A 
DOCKED: ATOM     24  CMD HEM A1501      54.791  81.188  15.265 -0.47 +0.01    +0.032 C 
DOCKED: ATOM     25  NA  HEM A1501      54.430  78.971   9.188 -0.18 -0.20    -0.246 N 
DOCKED: ATOM     26  NB  HEM A1501      54.869  76.166   9.562 -0.07 -0.12    -0.246 N 
DOCKED: ATOM     27  NC  HEM A1501      55.226  76.547  12.413 -0.13 -0.11    -0.246 N 
DOCKED: ATOM     28  ND  HEM A1501      54.675  79.442  11.980 -0.12 -0.17    -0.246 N 
DOCKED: ATOM     29 FE   HEM A1501      54.811  77.786  10.806 -0.07 +0.00    +0.000 Fe
DOCKED: ENDROOT
DOCKED: BRANCH  22  30
DOCKED: ATOM     30  CAD HEM A1501      54.147  83.023  12.885 -0.39 +0.04    +0.039 C 
DOCKED: BRANCH  30  31
DOCKED: ATOM     31  CBD HEM A1501      52.740  83.329  13.397 -0.50 +0.11    +0.102 C 
DOCKED: BRANCH  31  32
DOCKED: ATOM     32  CGD HEM A1501      52.225  84.681  12.941 -0.46 +0.27    +0.186 C 
DOCKED: ATOM     33  O1D HEM A1501      52.939  85.193  12.050 -0.55 -1.42    -0.647 OA
DOCKED: ATOM     34  O2D HEM A1501      51.122  85.214  13.405 -0.67 -0.93    -0.647 OA
DOCKED: ENDBRANCH  31  32
DOCKED: ENDBRANCH  30  31
DOCKED: ENDBRANCH  22  30
DOCKED: BRANCH   6  35
DOCKED: ATOM     35  CAA HEM A1501      53.788  82.151   7.295 -0.45 +0.06    +0.039 C 
DOCKED: BRANCH  35  36
DOCKED: ATOM     36  CBA HEM A1501      52.575  82.233   6.389 -0.57 +0.15    +0.102 C 
DOCKED: BRANCH  36  37
DOCKED: ATOM     37  CGA HEM A1501      52.174  83.634   6.017 -0.64 +0.34    +0.186 C 
DOCKED: ATOM     38  O1A HEM A1501      51.071  83.804   5.448 -1.06 -1.34    -0.647 OA
DOCKED: ATOM     39  O2A HEM A1501      52.934  84.572   6.331 -1.18 -1.65    -0.647 OA
DOCKED: ENDBRANCH  36  37
DOCKED: ENDBRANCH  35  36
DOCKED: ENDBRANCH   6  35
DOCKED: BRANCH  17  40
DOCKED: ATOM     40  CAC HEM A1501      56.060  75.837  15.934 -0.55 +0.00    +0.001 C 
DOCKED: ATOM     41  CBC HEM A1501      55.165  75.948  16.929 -0.64 +0.00    +0.000 C 
DOCKED: ENDBRANCH  17  40
DOCKED: BRANCH  12  42
DOCKED: ATOM     42  CAB HEM A1501      55.191  72.547   8.853 -0.56 +0.00    +0.001 C 
DOCKED: ATOM     43  CBB HEM A1501      55.561  71.661   7.949 -0.55 +0.00    +0.000 C 
DOCKED: ENDBRANCH  12  42
DOCKED: TORSDOF 8
DOCKED: TER
DOCKED: ENDMDL
________________________________________________________________________________


	BEGINNING GENETIC ALGORITHM DOCKING 39 of 100
Run: 39 Seed: 45545050 687734596 [ Run 39 of 100 GA/GALS ]
Beginning LAMARCKIAN GENETIC ALGORITHM (LGA), with a maximum of 2500000 energy evaluations.

Final-Value: -22.772


	FINAL GENETIC ALGORITHM DOCKED STATE
	_______________________________________________


Detailed state:  trans 54.958 78.968 10.769 quatxyzw -0.182509 0.971873 -0.148241 -0.013321 center 54.495 78.699 10.493 ntor 8 138.7532 -92.9843 78.2866 167.1014 -30.5122 9.1824 159.7815 146.2865
State:	 54.958  78.968  10.769  -0.183  0.972 -0.148 -178.473    138.75  -92.98   78.29  167.10  -30.51    9.18  159.78  146.29

DOCKED: MODEL       39
DOCKED: USER    Run = 39
DOCKED: USER    DPF = C:/Users/georg/Desktop/Dock/executables_autodock_tools/receptor.dpf
DOCKED: USER  
DOCKED: USER    Estimated Free Energy of Binding    =  -19.78 kcal/mol  [=(1)+(2)+(3)-(4)]
DOCKED: USER    Estimated Inhibition Constant, Ki   =    3.18 fM (femtomolar)  [Temperature = 298.15 K]
DOCKED: USER    
DOCKED: USER    (1) Final Intermolecular Energy     =  -22.17 kcal/mol
DOCKED: USER        vdW + Hbond + desolv Energy     =  -18.07 kcal/mol
DOCKED: USER        Electrostatic Energy            =   -4.10 kcal/mol
DOCKED: USER    (2) Final Total Internal Energy     =   -0.61 kcal/mol
DOCKED: USER    (3) Torsional Free Energy           =   +2.39 kcal/mol
DOCKED: USER    (4) Unbound System's Energy  [=(2)] =   -0.61 kcal/mol
DOCKED: USER    
DOCKED: USER    
DOCKED: USER    NEWDPF move ligand.pdbqt
DOCKED: USER    NEWDPF about 54.495000 78.699000 10.493000
DOCKED: USER    NEWDPF tran0 54.957572 78.967689 10.768863
DOCKED: USER    NEWDPF quaternion0 -0.182509 0.971873 -0.148241 -0.013321
DOCKED: USER    NEWDPF axisangle0 -0.182525 0.971960 -0.148254 -178.473475
DOCKED: USER    NEWDPF quat0 -0.182525 0.971960 -0.148254 -178.473475
DOCKED: USER    NEWDPF dihe0 138.75 -92.98 78.29 167.10 -30.51 9.18 159.78 146.29 
DOCKED: USER  keepresnum = 1 
DOCKED: USER  
DOCKED: REMARK  8 active torsions:
DOCKED: REMARK  status: ('A' for Active; 'I' for Inactive)
DOCKED: REMARK    1  A    between atoms: C2A_3624  and  CAA_3628 
DOCKED: REMARK    2  A    between atoms: CAA_3628  and  CBA_3629 
DOCKED: REMARK    3  A    between atoms: CBA_3629  and  CGA_3630 
DOCKED: REMARK    4  A    between atoms: C3B_3635  and  CAB_3638 
DOCKED: REMARK    5  A    between atoms: C3C_3642  and  CAC_3645 
DOCKED: REMARK    6  A    between atoms: C3D_3649  and  CAD_3652 
DOCKED: REMARK    7  A    between atoms: CAD_3652  and  CBD_3653 
DOCKED: REMARK    8  A    between atoms: CBD_3653  and  CGD_3654 
DOCKED: USER                              x       y       z     vdW  Elec       q    Type
DOCKED: USER                           _______ _______ _______ _____ _____    ______ ____
DOCKED: ROOT
DOCKED: ATOM      1  CHA HEM A1501      54.169  81.183  10.477 -0.28 +0.04    +0.038 A 
DOCKED: ATOM      2  CHB HEM A1501      54.616  77.395   7.545 -0.37 +0.03    +0.038 A 
DOCKED: ATOM      3  CHC HEM A1501      55.565  74.550  11.324 -0.40 +0.01    +0.038 A 
DOCKED: ATOM      4  CHD HEM A1501      55.184  78.356  14.255 -0.39 +0.02    +0.038 A 
DOCKED: ATOM      5  C1A HEM A1501      54.234  80.402   9.328 -0.25 +0.08    +0.079 A 
DOCKED: ATOM      6  C2A HEM A1501      54.053  80.857   7.945 -0.35 -0.01    -0.006 A 
DOCKED: ATOM      7  C3A HEM A1501      54.178  79.795   7.162 -0.36 -0.01    -0.007 A 
DOCKED: ATOM      8  C4A HEM A1501      54.446  78.681   8.020 -0.31 +0.06    +0.079 A 
DOCKED: ATOM      9  CMA HEM A1501      54.086  79.750   5.668 -0.47 +0.03    +0.032 C 
DOCKED: ATOM     10  C1B HEM A1501      54.884  76.274   8.309 -0.34 +0.05    +0.079 A 
DOCKED: ATOM     11  C2B HEM A1501      55.036  74.933   7.760 -0.46 -0.00    -0.003 A 
DOCKED: ATOM     12  C3B HEM A1501      55.288  74.134   8.830 -0.44 +0.01    +0.015 A 
DOCKED: ATOM     13  C4B HEM A1501      55.313  74.989  10.013 -0.36 +0.03    +0.083 A 
DOCKED: ATOM     14  CMB HEM A1501      54.918  74.582   6.302 -0.58 +0.02    +0.033 C 
DOCKED: ATOM     15  C1C HEM A1501      55.589  75.293  12.474 -0.34 +0.03    +0.079 A 
DOCKED: ATOM     16  C2C HEM A1501      55.937  74.797  13.777 -0.43 -0.00    -0.003 A 
DOCKED: ATOM     17  C3C HEM A1501      55.853  75.857  14.621 -0.39 +0.01    +0.015 A 
DOCKED: ATOM     18  C4C HEM A1501      55.437  77.015  13.807 -0.32 +0.03    +0.083 A 
DOCKED: ATOM     19  CMC HEM A1501      56.311  73.355  14.055 -0.56 +0.01    +0.033 C 
DOCKED: ATOM     20  C1D HEM A1501      54.808  79.489  13.492 -0.33 +0.04    +0.079 A 
DOCKED: ATOM     21  C2D HEM A1501      54.580  80.798  14.023 -0.40 -0.00    -0.007 A 
DOCKED: ATOM     22  C3D HEM A1501      54.294  81.598  12.964 -0.34 -0.00    -0.006 A 
DOCKED: ATOM     23  C4D HEM A1501      54.354  80.771  11.774 -0.23 +0.07    +0.079 A 
DOCKED: ATOM     24  CMD HEM A1501      54.648  81.199  15.443 -0.45 +0.01    +0.032 C 
DOCKED: ATOM     25  NA  HEM A1501      54.506  79.059   9.329 -0.17 -0.20    -0.246 N 
DOCKED: ATOM     26  NB  HEM A1501      55.044  76.268   9.674 -0.06 -0.12    -0.246 N 
DOCKED: ATOM     27  NC  HEM A1501      55.323  76.620  12.537 -0.16 -0.11    -0.246 N 
DOCKED: ATOM     28  ND  HEM A1501      54.671  79.498  12.132 -0.13 -0.17    -0.246 N 
DOCKED: ATOM     29 FE   HEM A1501      54.896  77.866  10.939 -0.07 +0.00    +0.000 Fe
DOCKED: ENDROOT
DOCKED: BRANCH  22  30
DOCKED: ATOM     30  CAD HEM A1501      53.987  83.043  13.075 -0.41 +0.04    +0.039 C 
DOCKED: BRANCH  30  31
DOCKED: ATOM     31  CBD HEM A1501      52.557  83.359  12.637 -0.49 +0.12    +0.102 C 
DOCKED: BRANCH  31  32
DOCKED: ATOM     32  CGD HEM A1501      51.979  84.578  13.332 -0.52 +0.25    +0.186 C 
DOCKED: ATOM     33  O1D HEM A1501      50.788  84.416  13.675 -0.29 -0.79    -0.647 OA
DOCKED: ATOM     34  O2D HEM A1501      52.686  85.652  13.582 -0.49 -1.18    -0.647 OA
DOCKED: ENDBRANCH  31  32
DOCKED: ENDBRANCH  30  31
DOCKED: ENDBRANCH  22  30
DOCKED: BRANCH   6  35
DOCKED: ATOM     35  CAA HEM A1501      53.784  82.240   7.467 -0.43 +0.06    +0.039 C 
DOCKED: BRANCH  35  36
DOCKED: ATOM     36  CBA HEM A1501      52.420  82.352   6.813 -0.57 +0.16    +0.102 C 
DOCKED: BRANCH  36  37
DOCKED: ATOM     37  CGA HEM A1501      52.137  83.695   6.198 -0.64 +0.36    +0.186 C 
DOCKED: ATOM     38  O1A HEM A1501      52.911  84.645   6.460 -1.13 -1.74    -0.647 OA
DOCKED: ATOM     39  O2A HEM A1501      51.170  83.797   5.415 -1.06 -1.31    -0.647 OA
DOCKED: ENDBRANCH  36  37
DOCKED: ENDBRANCH  35  36
DOCKED: ENDBRANCH   6  35
DOCKED: BRANCH  17  40
DOCKED: ATOM     40  CAC HEM A1501      56.106  75.892  16.067 -0.56 +0.00    +0.001 C 
DOCKED: ATOM     41  CBC HEM A1501      55.186  75.905  17.044 -0.66 +0.00    +0.000 C 
DOCKED: ENDBRANCH  17  40
DOCKED: BRANCH  12  42
DOCKED: ATOM     42  CAB HEM A1501      55.520  72.674   8.923 -0.52 +0.00    +0.001 C 
DOCKED: ATOM     43  CBB HEM A1501      54.823  71.736   9.532 -0.55 +0.00    +0.000 C 
DOCKED: ENDBRANCH  12  42
DOCKED: TORSDOF 8
DOCKED: TER
DOCKED: ENDMDL
________________________________________________________________________________


	BEGINNING GENETIC ALGORITHM DOCKING 40 of 100
Run: 40 Seed: 1391182341 821323851 [ Run 40 of 100 GA/GALS ]
Beginning LAMARCKIAN GENETIC ALGORITHM (LGA), with a maximum of 2500000 energy evaluations.

Final-Value: -23.030


	FINAL GENETIC ALGORITHM DOCKED STATE
	_______________________________________________


Detailed state:  trans 54.450 78.479 10.388 quatxyzw -0.017321 -0.003284 0.001886 0.999843 center 54.495 78.699 10.493 ntor 8 -60.4688 -18.5209 3.6792 8.8329 1.7188 4.0817 -4.7242 -12.7478
State:	 54.450  78.479  10.388  -0.977 -0.185  0.106  2.032    -60.47  -18.52    3.68    8.83    1.72    4.08   -4.72  -12.75

DOCKED: MODEL       40
DOCKED: USER    Run = 40
DOCKED: USER    DPF = C:/Users/georg/Desktop/Dock/executables_autodock_tools/receptor.dpf
DOCKED: USER  
DOCKED: USER    Estimated Free Energy of Binding    =  -20.12 kcal/mol  [=(1)+(2)+(3)-(4)]
DOCKED: USER    Estimated Inhibition Constant, Ki   =    1.78 fM (femtomolar)  [Temperature = 298.15 K]
DOCKED: USER    
DOCKED: USER    (1) Final Intermolecular Energy     =  -22.51 kcal/mol
DOCKED: USER        vdW + Hbond + desolv Energy     =  -18.23 kcal/mol
DOCKED: USER        Electrostatic Energy            =   -4.28 kcal/mol
DOCKED: USER    (2) Final Total Internal Energy     =   -0.52 kcal/mol
DOCKED: USER    (3) Torsional Free Energy           =   +2.39 kcal/mol
DOCKED: USER    (4) Unbound System's Energy  [=(2)] =   -0.52 kcal/mol
DOCKED: USER    
DOCKED: USER    
DOCKED: USER    NEWDPF move ligand.pdbqt
DOCKED: USER    NEWDPF about 54.495000 78.699000 10.493000
DOCKED: USER    NEWDPF tran0 54.449720 78.479423 10.388076
DOCKED: USER    NEWDPF quaternion0 -0.017321 -0.003284 0.001886 0.999843
DOCKED: USER    NEWDPF axisangle0 -0.976918 -0.185231 0.106396 2.031835
DOCKED: USER    NEWDPF quat0 -0.976918 -0.185231 0.106396 2.031835
DOCKED: USER    NEWDPF dihe0 -60.47 -18.52 3.68 8.83 1.72 4.08 -4.72 -12.75 
DOCKED: USER  keepresnum = 1 
DOCKED: USER  
DOCKED: REMARK  8 active torsions:
DOCKED: REMARK  status: ('A' for Active; 'I' for Inactive)
DOCKED: REMARK    1  A    between atoms: C2A_3624  and  CAA_3628 
DOCKED: REMARK    2  A    between atoms: CAA_3628  and  CBA_3629 
DOCKED: REMARK    3  A    between atoms: CBA_3629  and  CGA_3630 
DOCKED: REMARK    4  A    between atoms: C3B_3635  and  CAB_3638 
DOCKED: REMARK    5  A    between atoms: C3C_3642  and  CAC_3645 
DOCKED: REMARK    6  A    between atoms: C3D_3649  and  CAD_3652 
DOCKED: REMARK    7  A    between atoms: CAD_3652  and  CBD_3653 
DOCKED: REMARK    8  A    between atoms: CBD_3653  and  CGD_3654 
DOCKED: USER                              x       y       z     vdW  Elec       q    Type
DOCKED: USER                           _______ _______ _______ _____ _____    ______ ____
DOCKED: ROOT
DOCKED: ATOM      1  CHA HEM A1501      54.389  80.825  10.058 -0.26 +0.04    +0.038 A 
DOCKED: ATOM      2  CHB HEM A1501      55.263  78.021  13.868 -0.36 +0.02    +0.038 A 
DOCKED: ATOM      3  CHC HEM A1501      55.471  74.147  11.001 -0.41 +0.01    +0.038 A 
DOCKED: ATOM      4  CHD HEM A1501      54.530  76.944   7.192 -0.41 +0.03    +0.038 A 
DOCKED: ATOM      5  C1A HEM A1501      54.583  80.398  11.367 -0.20 +0.06    +0.079 A 
DOCKED: ATOM      6  C2A HEM A1501      54.561  81.230  12.575 -0.29 -0.00    -0.006 A 
DOCKED: ATOM      7  C3A HEM A1501      54.807  80.434  13.605 -0.36 -0.00    -0.007 A 
DOCKED: ATOM      8  C4A HEM A1501      54.973  79.115  13.075 -0.28 +0.05    +0.079 A 
DOCKED: ATOM      9  CMA HEM A1501      54.878  80.814  15.053 -0.44 +0.01    +0.032 C 
DOCKED: ATOM     10  C1B HEM A1501      55.428  76.720  13.431 -0.30 +0.03    +0.079 A 
DOCKED: ATOM     11  C2B HEM A1501      55.754  75.602  14.307 -0.39 -0.00    -0.003 A 
DOCKED: ATOM     12  C3B HEM A1501      55.827  74.517  13.493 -0.42 +0.01    +0.015 A 
DOCKED: ATOM     13  C4B HEM A1501      55.523  74.971  12.139 -0.35 +0.03    +0.083 A 
DOCKED: ATOM     14  CMB HEM A1501      55.959  75.707  15.794 -0.51 +0.01    +0.033 C 
DOCKED: ATOM     15  C1C HEM A1501      55.208  74.508   9.707 -0.39 +0.03    +0.079 A 
DOCKED: ATOM     16  C2C HEM A1501      55.087  73.601   8.599 -0.46 -0.00    -0.003 A 
DOCKED: ATOM     17  C3C HEM A1501      54.805  74.365   7.512 -0.47 +0.01    +0.015 A 
DOCKED: ATOM     18  C4C HEM A1501      54.763  75.765   7.978 -0.38 +0.05    +0.083 A 
DOCKED: ATOM     19  CMC HEM A1501      55.258  72.100   8.719 -0.54 +0.01    +0.033 C 
DOCKED: ATOM     20  C1D HEM A1501      54.460  78.293   7.618 -0.33 +0.06    +0.079 A 
DOCKED: ATOM     21  C2D HEM A1501      54.216  79.413   6.761 -0.37 -0.01    -0.007 A 
DOCKED: ATOM     22  C3D HEM A1501      54.176  80.509   7.562 -0.34 -0.01    -0.006 A 
DOCKED: ATOM     23  C4D HEM A1501      54.391  80.052   8.922 -0.26 +0.07    +0.079 A 
DOCKED: ATOM     24  CMD HEM A1501      54.039  79.382   5.295 -0.48 +0.03    +0.032 C 
DOCKED: ATOM     25  NA  HEM A1501      54.809  79.094  11.722 -0.09 -0.17    -0.246 N 
DOCKED: ATOM     26  NB  HEM A1501      55.310  76.304  12.126 -0.13 -0.10    -0.246 N 
DOCKED: ATOM     27  NC  HEM A1501      54.984  75.780   9.294 -0.22 -0.12    -0.246 N 
DOCKED: ATOM     28  ND  HEM A1501      54.556  78.703   8.918 -0.19 -0.19    -0.246 N 
DOCKED: ATOM     29 FE   HEM A1501      54.904  77.465  10.494 -0.07 +0.00    +0.000 Fe
DOCKED: ENDROOT
DOCKED: BRANCH  22  30
DOCKED: ATOM     30  CAD HEM A1501      53.949  81.888   7.071 -0.43 +0.05    +0.039 C 
DOCKED: BRANCH  30  31
DOCKED: ATOM     31  CBD HEM A1501      52.469  82.165   6.809 -0.56 +0.15    +0.102 C 
DOCKED: BRANCH  31  32
DOCKED: ATOM     32  CGD HEM A1501      52.219  83.540   6.219 -0.63 +0.35    +0.186 C 
DOCKED: ATOM     33  O1D HEM A1501      51.249  83.556   5.431 -1.06 -1.27    -0.647 OA
DOCKED: ATOM     34  O2D HEM A1501      52.923  84.594   6.553 -1.16 -1.74    -0.647 OA
DOCKED: ENDBRANCH  31  32
DOCKED: ENDBRANCH  30  31
DOCKED: ENDBRANCH  22  30
DOCKED: BRANCH   6  35
DOCKED: ATOM     35  CAA HEM A1501      54.308  82.693  12.671 -0.36 +0.04    +0.039 C 
DOCKED: BRANCH  35  36
DOCKED: ATOM     36  CBA HEM A1501      52.826  83.002  12.747 -0.49 +0.11    +0.102 C 
DOCKED: BRANCH  36  37
DOCKED: ATOM     37  CGA HEM A1501      52.502  84.468  12.844 -0.46 +0.27    +0.186 C 
DOCKED: ATOM     38  O1A HEM A1501      51.322  84.801  13.102 -0.28 -0.86    -0.647 OA
DOCKED: ATOM     39  O2A HEM A1501      53.432  85.290  12.710 -0.64 -1.33    -0.647 OA
DOCKED: ENDBRANCH  36  37
DOCKED: ENDBRANCH  35  36
DOCKED: ENDBRANCH   6  35
DOCKED: BRANCH  17  40
DOCKED: ATOM     40  CAC HEM A1501      54.586  73.933   6.127 -0.61 +0.00    +0.001 C 
DOCKED: ATOM     41  CBC HEM A1501      53.650  73.076   5.691 -0.68 +0.00    +0.000 C 
DOCKED: ENDBRANCH  17  40
DOCKED: BRANCH  12  42
DOCKED: ATOM     42  CAB HEM A1501      56.134  73.098  13.785 -0.56 +0.00    +0.001 C 
DOCKED: ATOM     43  CBB HEM A1501      57.049  72.566  14.570 -0.63 +0.00    +0.000 C 
DOCKED: ENDBRANCH  12  42
DOCKED: TORSDOF 8
DOCKED: TER
DOCKED: ENDMDL
________________________________________________________________________________


	BEGINNING GENETIC ALGORITHM DOCKING 41 of 100
Run: 41 Seed: 1409094767 353020111 [ Run 41 of 100 GA/GALS ]
Beginning LAMARCKIAN GENETIC ALGORITHM (LGA), with a maximum of 2500000 energy evaluations.

Final-Value: -23.435


	FINAL GENETIC ALGORITHM DOCKED STATE
	_______________________________________________


Detailed state:  trans 54.927 79.145 10.931 quatxyzw -0.192316 0.967335 -0.163408 -0.023982 center 54.495 78.699 10.493 ntor 8 158.3444 -54.3237 -137.3773 -180.0000 -14.1288 5.7184 -177.8744 141.2238
State:	 54.927  79.145  10.931  -0.192  0.968 -0.163 -177.252    158.34  -54.32 -137.38 -180.00  -14.13    5.72 -177.87  141.22

DOCKED: MODEL       41
DOCKED: USER    Run = 41
DOCKED: USER    DPF = C:/Users/georg/Desktop/Dock/executables_autodock_tools/receptor.dpf
DOCKED: USER  
DOCKED: USER    Estimated Free Energy of Binding    =  -20.50 kcal/mol  [=(1)+(2)+(3)-(4)]
DOCKED: USER    Estimated Inhibition Constant, Ki   =  941.95 aM (attomolar)  [Temperature = 298.15 K]
DOCKED: USER    
DOCKED: USER    (1) Final Intermolecular Energy     =  -22.89 kcal/mol
DOCKED: USER        vdW + Hbond + desolv Energy     =  -18.73 kcal/mol
DOCKED: USER        Electrostatic Energy            =   -4.16 kcal/mol
DOCKED: USER    (2) Final Total Internal Energy     =   -0.55 kcal/mol
DOCKED: USER    (3) Torsional Free Energy           =   +2.39 kcal/mol
DOCKED: USER    (4) Unbound System's Energy  [=(2)] =   -0.55 kcal/mol
DOCKED: USER    
DOCKED: USER    
DOCKED: USER    NEWDPF move ligand.pdbqt
DOCKED: USER    NEWDPF about 54.495000 78.699000 10.493000
DOCKED: USER    NEWDPF tran0 54.926801 79.144556 10.931429
DOCKED: USER    NEWDPF quaternion0 -0.192316 0.967335 -0.163408 -0.023982
DOCKED: USER    NEWDPF axisangle0 -0.192371 0.967614 -0.163455 -177.251644
DOCKED: USER    NEWDPF quat0 -0.192371 0.967614 -0.163455 -177.251644
DOCKED: USER    NEWDPF dihe0 158.34 -54.32 -137.38 -180.00 -14.13 5.72 -177.87 141.22 
DOCKED: USER  keepresnum = 1 
DOCKED: USER  
DOCKED: REMARK  8 active torsions:
DOCKED: REMARK  status: ('A' for Active; 'I' for Inactive)
DOCKED: REMARK    1  A    between atoms: C2A_3624  and  CAA_3628 
DOCKED: REMARK    2  A    between atoms: CAA_3628  and  CBA_3629 
DOCKED: REMARK    3  A    between atoms: CBA_3629  and  CGA_3630 
DOCKED: REMARK    4  A    between atoms: C3B_3635  and  CAB_3638 
DOCKED: REMARK    5  A    between atoms: C3C_3642  and  CAC_3645 
DOCKED: REMARK    6  A    between atoms: C3D_3649  and  CAD_3652 
DOCKED: REMARK    7  A    between atoms: CAD_3652  and  CBD_3653 
DOCKED: REMARK    8  A    between atoms: CBD_3653  and  CGD_3654 
DOCKED: USER                              x       y       z     vdW  Elec       q    Type
DOCKED: USER                           _______ _______ _______ _____ _____    ______ ____
DOCKED: ROOT
DOCKED: ATOM      1  CHA HEM A1501      54.094  81.331  10.561 -0.28 +0.04    +0.038 A 
DOCKED: ATOM      2  CHB HEM A1501      54.698  77.478   7.745 -0.35 +0.03    +0.038 A 
DOCKED: ATOM      3  CHC HEM A1501      55.623  74.759  11.622 -0.39 +0.01    +0.038 A 
DOCKED: ATOM      4  CHD HEM A1501      55.084  78.632  14.437 -0.39 +0.01    +0.038 A 
DOCKED: ATOM      5  C1A HEM A1501      54.205  80.522   9.435 -0.25 +0.08    +0.079 A 
DOCKED: ATOM      6  C2A HEM A1501      54.046  80.935   8.037 -0.35 -0.01    -0.006 A 
DOCKED: ATOM      7  C3A HEM A1501      54.214  79.856   7.286 -0.35 -0.01    -0.007 A 
DOCKED: ATOM      8  C4A HEM A1501      54.487  78.772   8.181 -0.30 +0.06    +0.079 A 
DOCKED: ATOM      9  CMA HEM A1501      54.159  79.768   5.792 -0.46 +0.03    +0.032 C 
DOCKED: ATOM     10  C1B HEM A1501      54.974  76.385   8.545 -0.31 +0.04    +0.079 A 
DOCKED: ATOM     11  C2B HEM A1501      55.171  75.033   8.037 -0.45 -0.00    -0.003 A 
DOCKED: ATOM     12  C3B HEM A1501      55.415  74.270   9.134 -0.44 +0.01    +0.015 A 
DOCKED: ATOM     13  C4B HEM A1501      55.392  75.157  10.293 -0.34 +0.03    +0.083 A 
DOCKED: ATOM     14  CMB HEM A1501      55.095  74.641   6.587 -0.57 +0.02    +0.033 C 
DOCKED: ATOM     15  C1C HEM A1501      55.603  75.533  12.751 -0.33 +0.03    +0.079 A 
DOCKED: ATOM     16  C2C HEM A1501      55.931  75.080  14.075 -0.42 -0.00    -0.003 A 
DOCKED: ATOM     17  C3C HEM A1501      55.802  76.161  14.888 -0.40 +0.01    +0.015 A 
DOCKED: ATOM     18  C4C HEM A1501      55.379  77.286  14.032 -0.34 +0.03    +0.083 A 
DOCKED: ATOM     19  CMC HEM A1501      56.332  73.656  14.401 -0.56 +0.01    +0.033 C 
DOCKED: ATOM     20  C1D HEM A1501      54.701  79.735  13.635 -0.34 +0.05    +0.079 A 
DOCKED: ATOM     21  C2D HEM A1501      54.430  81.053  14.125 -0.41 -0.00    -0.007 A 
DOCKED: ATOM     22  C3D HEM A1501      54.150  81.816  13.037 -0.37 -0.00    -0.006 A 
DOCKED: ATOM     23  C4D HEM A1501      54.258  80.959  11.873 -0.25 +0.07    +0.079 A 
DOCKED: ATOM     24  CMD HEM A1501      54.455  81.493  15.534 -0.47 +0.01    +0.032 C 
DOCKED: ATOM     25  NA  HEM A1501      54.507  79.187   9.479 -0.16 -0.20    -0.246 N 
DOCKED: ATOM     26  NB  HEM A1501      55.102  76.419   9.914 +0.03 -0.12    -0.246 N 
DOCKED: ATOM     27  NC  HEM A1501      55.304  76.855  12.772 -0.17 -0.11    -0.246 N 
DOCKED: ATOM     28  ND  HEM A1501      54.596  79.705  12.273 -0.15 -0.17    -0.246 N 
DOCKED: ATOM     29 FE   HEM A1501      54.887  78.047  11.131 -0.07 +0.00    +0.000 Fe
DOCKED: ENDROOT
DOCKED: BRANCH  22  30
DOCKED: ATOM     30  CAD HEM A1501      53.807  83.257  13.101 -0.44 +0.04    +0.039 C 
DOCKED: BRANCH  30  31
DOCKED: ATOM     31  CBD HEM A1501      52.297  83.482  13.163 -0.51 +0.11    +0.102 C 
DOCKED: BRANCH  31  32
DOCKED: ATOM     32  CGD HEM A1501      51.925  84.909  13.520 -0.51 +0.26    +0.186 C 
DOCKED: ATOM     33  O1D HEM A1501      52.920  85.664  13.584 -0.45 -1.19    -0.647 OA
DOCKED: ATOM     34  O2D HEM A1501      50.685  85.297  13.689 -1.01 -0.89    -0.647 OA
DOCKED: ENDBRANCH  31  32
DOCKED: ENDBRANCH  30  31
DOCKED: ENDBRANCH  22  30
DOCKED: BRANCH   6  35
DOCKED: ATOM     35  CAA HEM A1501      53.757  82.298   7.514 -0.42 +0.06    +0.039 C 
DOCKED: BRANCH  35  36
DOCKED: ATOM     36  CBA HEM A1501      52.465  82.332   6.720 -0.57 +0.16    +0.102 C 
DOCKED: BRANCH  36  37
DOCKED: ATOM     37  CGA HEM A1501      52.136  83.675   6.129 -0.64 +0.35    +0.186 C 
DOCKED: ATOM     38  O1A HEM A1501      52.939  84.619   6.314 -1.15 -1.68    -0.647 OA
DOCKED: ATOM     39  O2A HEM A1501      51.101  83.782   5.440 -1.06 -1.33    -0.647 OA
DOCKED: ENDBRANCH  36  37
DOCKED: ENDBRANCH  35  36
DOCKED: ENDBRANCH   6  35
DOCKED: BRANCH  17  40
DOCKED: ATOM     40  CAC HEM A1501      56.020  76.241  16.337 -0.58 +0.00    +0.001 C 
DOCKED: ATOM     41  CBC HEM A1501      55.150  75.900  17.300 -0.68 +0.00    +0.000 C 
DOCKED: ENDBRANCH  17  40
DOCKED: BRANCH  12  42
DOCKED: ATOM     42  CAB HEM A1501      55.678  72.819   9.273 -0.47 +0.00    +0.001 C 
DOCKED: ATOM     43  CBB HEM A1501      54.850  71.794   9.247 -0.58 +0.00    +0.000 C 
DOCKED: ENDBRANCH  12  42
DOCKED: TORSDOF 8
DOCKED: TER
DOCKED: ENDMDL
________________________________________________________________________________


	BEGINNING GENETIC ALGORITHM DOCKING 42 of 100
Run: 42 Seed: 1114475778 1921147853 [ Run 42 of 100 GA/GALS ]
Beginning LAMARCKIAN GENETIC ALGORITHM (LGA), with a maximum of 2500000 energy evaluations.

Final-Value: -23.196


	FINAL GENETIC ALGORITHM DOCKED STATE
	_______________________________________________


Detailed state:  trans 54.339 78.901 10.675 quatxyzw 0.016296 -0.022570 0.016978 -0.999468 center 54.495 78.699 10.493 ntor 8 2.8486 -32.8223 178.3378 157.0235 17.4135 5.1001 5.5552 12.8331
State:	 54.339  78.901  10.675   0.500 -0.692  0.521 -3.737      2.85  -32.82  178.34  157.02   17.41    5.10    5.56   12.83

DOCKED: MODEL       42
DOCKED: USER    Run = 42
DOCKED: USER    DPF = C:/Users/georg/Desktop/Dock/executables_autodock_tools/receptor.dpf
DOCKED: USER  
DOCKED: USER    Estimated Free Energy of Binding    =  -20.22 kcal/mol  [=(1)+(2)+(3)-(4)]
DOCKED: USER    Estimated Inhibition Constant, Ki   =    1.50 fM (femtomolar)  [Temperature = 298.15 K]
DOCKED: USER    
DOCKED: USER    (1) Final Intermolecular Energy     =  -22.61 kcal/mol
DOCKED: USER        vdW + Hbond + desolv Energy     =  -18.41 kcal/mol
DOCKED: USER        Electrostatic Energy            =   -4.20 kcal/mol
DOCKED: USER    (2) Final Total Internal Energy     =   -0.59 kcal/mol
DOCKED: USER    (3) Torsional Free Energy           =   +2.39 kcal/mol
DOCKED: USER    (4) Unbound System's Energy  [=(2)] =   -0.59 kcal/mol
DOCKED: USER    
DOCKED: USER    
DOCKED: USER    NEWDPF move ligand.pdbqt
DOCKED: USER    NEWDPF about 54.495000 78.699000 10.493000
DOCKED: USER    NEWDPF tran0 54.338702 78.901343 10.675421
DOCKED: USER    NEWDPF quaternion0 0.016296 -0.022570 0.016978 -0.999468
DOCKED: USER    NEWDPF axisangle0 0.499775 -0.692181 0.520682 -3.737207
DOCKED: USER    NEWDPF quat0 0.499775 -0.692181 0.520682 -3.737207
DOCKED: USER    NEWDPF dihe0 2.85 -32.82 178.34 157.02 17.41 5.10 5.56 12.83 
DOCKED: USER  keepresnum = 1 
DOCKED: USER  
DOCKED: REMARK  8 active torsions:
DOCKED: REMARK  status: ('A' for Active; 'I' for Inactive)
DOCKED: REMARK    1  A    between atoms: C2A_3624  and  CAA_3628 
DOCKED: REMARK    2  A    between atoms: CAA_3628  and  CBA_3629 
DOCKED: REMARK    3  A    between atoms: CBA_3629  and  CGA_3630 
DOCKED: REMARK    4  A    between atoms: C3B_3635  and  CAB_3638 
DOCKED: REMARK    5  A    between atoms: C3C_3642  and  CAC_3645 
DOCKED: REMARK    6  A    between atoms: C3D_3649  and  CAD_3652 
DOCKED: REMARK    7  A    between atoms: CAD_3652  and  CBD_3653 
DOCKED: REMARK    8  A    between atoms: CBD_3653  and  CGD_3654 
DOCKED: USER                              x       y       z     vdW  Elec       q    Type
DOCKED: USER                           _______ _______ _______ _____ _____    ______ ____
DOCKED: ROOT
DOCKED: ATOM      1  CHA HEM A1501      54.209  81.242  10.335 -0.28 +0.04    +0.038 A 
DOCKED: ATOM      2  CHB HEM A1501      54.985  78.477  14.195 -0.39 +0.02    +0.038 A 
DOCKED: ATOM      3  CHC HEM A1501      55.485  74.610  11.353 -0.40 +0.01    +0.038 A 
DOCKED: ATOM      4  CHD HEM A1501      54.642  77.366   7.493 -0.37 +0.03    +0.038 A 
DOCKED: ATOM      5  C1A HEM A1501      54.350  80.825  11.655 -0.23 +0.07    +0.079 A 
DOCKED: ATOM      6  C2A HEM A1501      54.234  81.656  12.857 -0.35 -0.00    -0.006 A 
DOCKED: ATOM      7  C3A HEM A1501      54.455  80.871  13.901 -0.41 -0.00    -0.007 A 
DOCKED: ATOM      8  C4A HEM A1501      54.697  79.558  13.384 -0.33 +0.05    +0.079 A 
DOCKED: ATOM      9  CMA HEM A1501      54.436  81.255  15.349 -0.45 +0.01    +0.032 C 
DOCKED: ATOM     10  C1B HEM A1501      55.221  77.183  13.770 -0.33 +0.03    +0.079 A 
DOCKED: ATOM     11  C2B HEM A1501      55.541  76.078  14.666 -0.38 -0.00    -0.003 A 
DOCKED: ATOM     12  C3B HEM A1501      55.696  74.996  13.860 -0.39 +0.01    +0.015 A 
DOCKED: ATOM     13  C4B HEM A1501      55.447  75.436  12.490 -0.33 +0.03    +0.083 A 
DOCKED: ATOM     14  CMB HEM A1501      55.664  76.192  16.161 -0.55 +0.01    +0.033 C 
DOCKED: ATOM     15  C1C HEM A1501      55.277  74.959  10.047 -0.36 +0.03    +0.079 A 
DOCKED: ATOM     16  C2C HEM A1501      55.248  74.048   8.936 -0.46 -0.00    -0.003 A 
DOCKED: ATOM     17  C3C HEM A1501      54.995  74.800   7.834 -0.45 +0.01    +0.015 A 
DOCKED: ATOM     18  C4C HEM A1501      54.877  76.198   8.294 -0.34 +0.05    +0.083 A 
DOCKED: ATOM     19  CMC HEM A1501      55.468  72.555   9.070 -0.51 +0.01    +0.033 C 
DOCKED: ATOM     20  C1D HEM A1501      54.501  78.713   7.910 -0.31 +0.06    +0.079 A 
DOCKED: ATOM     21  C2D HEM A1501      54.261  79.822   7.038 -0.35 -0.01    -0.007 A 
DOCKED: ATOM     22  C3D HEM A1501      54.139  80.916   7.833 -0.34 -0.01    -0.006 A 
DOCKED: ATOM     23  C4D HEM A1501      54.299  80.470   9.204 -0.26 +0.08    +0.079 A 
DOCKED: ATOM     24  CMD HEM A1501      54.163  79.783   5.565 -0.48 +0.03    +0.032 C 
DOCKED: ATOM     25  NA  HEM A1501      54.605  79.530  12.024 -0.12 -0.18    -0.246 N 
DOCKED: ATOM     26  NB  HEM A1501      55.187  76.761  12.463 -0.12 -0.11    -0.246 N 
DOCKED: ATOM     27  NC  HEM A1501      55.028  76.222   9.619 -0.09 -0.12    -0.246 N 
DOCKED: ATOM     28  ND  HEM A1501      54.513  79.127   9.212 -0.18 -0.20    -0.246 N 
DOCKED: ATOM     29 FE   HEM A1501      54.824  77.905  10.808 -0.07 +0.00    +0.000 Fe
DOCKED: ENDROOT
DOCKED: BRANCH  22  30
DOCKED: ATOM     30  CAD HEM A1501      53.888  82.286   7.327 -0.43 +0.06    +0.039 C 
DOCKED: BRANCH  30  31
DOCKED: ATOM     31  CBD HEM A1501      52.394  82.592   7.225 -0.55 +0.17    +0.102 C 
DOCKED: BRANCH  31  32
DOCKED: ATOM     32  CGD HEM A1501      52.089  83.755   6.300 -0.63 +0.36    +0.186 C 
DOCKED: ATOM     33  O1D HEM A1501      52.930  84.675   6.391 -1.11 -1.74    -0.647 OA
DOCKED: ATOM     34  O2D HEM A1501      51.077  83.752   5.467 -1.05 -1.34    -0.647 OA
DOCKED: ENDBRANCH  31  32
DOCKED: ENDBRANCH  30  31
DOCKED: ENDBRANCH  22  30
DOCKED: BRANCH   6  35
DOCKED: ATOM     35  CAA HEM A1501      53.923  83.110  12.936 -0.42 +0.04    +0.039 C 
DOCKED: BRANCH  35  36
DOCKED: ATOM     36  CBA HEM A1501      52.556  83.358  13.543 -0.50 +0.10    +0.102 C 
DOCKED: BRANCH  36  37
DOCKED: ATOM     37  CGA HEM A1501      52.170  84.809  13.627 -0.49 +0.25    +0.186 C 
DOCKED: ATOM     38  O1A HEM A1501      53.081  85.669  13.607 -0.45 -1.18    -0.647 OA
DOCKED: ATOM     39  O2A HEM A1501      50.956  85.099  13.666 -0.69 -0.88    -0.647 OA
DOCKED: ENDBRANCH  36  37
DOCKED: ENDBRANCH  35  36
DOCKED: ENDBRANCH   6  35
DOCKED: BRANCH  17  40
DOCKED: ATOM     40  CAC HEM A1501      54.865  74.358   6.441 -0.60 +0.00    +0.001 C 
DOCKED: ATOM     41  CBC HEM A1501      53.804  74.533   5.638 -0.66 +0.00    +0.000 C 
DOCKED: ENDBRANCH  17  40
DOCKED: BRANCH  12  42
DOCKED: ATOM     42  CAB HEM A1501      56.039  73.589  14.171 -0.56 +0.00    +0.001 C 
DOCKED: ATOM     43  CBB HEM A1501      57.079  73.083  14.804 -0.64 +0.00    +0.000 C 
DOCKED: ENDBRANCH  12  42
DOCKED: TORSDOF 8
DOCKED: TER
DOCKED: ENDMDL
________________________________________________________________________________


	BEGINNING GENETIC ALGORITHM DOCKING 43 of 100
Run: 43 Seed: 172600520 1520515495 [ Run 43 of 100 GA/GALS ]
Beginning LAMARCKIAN GENETIC ALGORITHM (LGA), with a maximum of 2500000 energy evaluations.

Final-Value: -23.130


	FINAL GENETIC ALGORITHM DOCKED STATE
	_______________________________________________


Detailed state:  trans 54.947 78.707 10.470 quatxyzw 0.156499 -0.971067 0.180378 0.000714 center 54.495 78.699 10.493 ntor 8 170.5959 166.6873 -153.2433 122.8751 23.3522 13.9732 -144.8410 -179.0999
State:	 54.947  78.707  10.470   0.156 -0.971  0.180 179.918    170.60  166.69 -153.24  122.88   23.35   13.97 -144.84 -179.10

DOCKED: MODEL       43
DOCKED: USER    Run = 43
DOCKED: USER    DPF = C:/Users/georg/Desktop/Dock/executables_autodock_tools/receptor.dpf
DOCKED: USER  
DOCKED: USER    Estimated Free Energy of Binding    =  -20.29 kcal/mol  [=(1)+(2)+(3)-(4)]
DOCKED: USER    Estimated Inhibition Constant, Ki   =    1.34 fM (femtomolar)  [Temperature = 298.15 K]
DOCKED: USER    
DOCKED: USER    (1) Final Intermolecular Energy     =  -22.68 kcal/mol
DOCKED: USER        vdW + Hbond + desolv Energy     =  -18.27 kcal/mol
DOCKED: USER        Electrostatic Energy            =   -4.40 kcal/mol
DOCKED: USER    (2) Final Total Internal Energy     =   -0.45 kcal/mol
DOCKED: USER    (3) Torsional Free Energy           =   +2.39 kcal/mol
DOCKED: USER    (4) Unbound System's Energy  [=(2)] =   -0.45 kcal/mol
DOCKED: USER    
DOCKED: USER    
DOCKED: USER    NEWDPF move ligand.pdbqt
DOCKED: USER    NEWDPF about 54.495000 78.699000 10.493000
DOCKED: USER    NEWDPF tran0 54.946963 78.706709 10.470072
DOCKED: USER    NEWDPF quaternion0 0.156499 -0.971067 0.180378 0.000714
DOCKED: USER    NEWDPF axisangle0 0.156499 -0.971067 0.180378 179.918205
DOCKED: USER    NEWDPF quat0 0.156499 -0.971067 0.180378 179.918205
DOCKED: USER    NEWDPF dihe0 170.60 166.69 -153.24 122.88 23.35 13.97 -144.84 -179.10 
DOCKED: USER  keepresnum = 1 
DOCKED: USER  
DOCKED: REMARK  8 active torsions:
DOCKED: REMARK  status: ('A' for Active; 'I' for Inactive)
DOCKED: REMARK    1  A    between atoms: C2A_3624  and  CAA_3628 
DOCKED: REMARK    2  A    between atoms: CAA_3628  and  CBA_3629 
DOCKED: REMARK    3  A    between atoms: CBA_3629  and  CGA_3630 
DOCKED: REMARK    4  A    between atoms: C3B_3635  and  CAB_3638 
DOCKED: REMARK    5  A    between atoms: C3C_3642  and  CAC_3645 
DOCKED: REMARK    6  A    between atoms: C3D_3649  and  CAD_3652 
DOCKED: REMARK    7  A    between atoms: CAD_3652  and  CBD_3653 
DOCKED: REMARK    8  A    between atoms: CBD_3653  and  CGD_3654 
DOCKED: USER                              x       y       z     vdW  Elec       q    Type
DOCKED: USER                           _______ _______ _______ _____ _____    ______ ____
DOCKED: ROOT
DOCKED: ATOM      1  CHA HEM A1501      54.279  80.937  10.034 -0.27 +0.04    +0.038 A 
DOCKED: ATOM      2  CHB HEM A1501      54.498  76.945   7.359 -0.40 +0.03    +0.038 A 
DOCKED: ATOM      3  CHC HEM A1501      55.316  74.309  11.317 -0.39 +0.01    +0.038 A 
DOCKED: ATOM      4  CHD HEM A1501      55.163  78.316  13.988 -0.37 +0.02    +0.038 A 
DOCKED: ATOM      5  C1A HEM A1501      54.293  80.080   8.939 -0.26 +0.08    +0.079 A 
DOCKED: ATOM      6  C2A HEM A1501      54.127  80.451   7.530 -0.35 -0.01    -0.006 A 
DOCKED: ATOM      7  C3A HEM A1501      54.189  79.334   6.819 -0.37 -0.01    -0.007 A 
DOCKED: ATOM      8  C4A HEM A1501      54.401  78.267   7.748 -0.34 +0.06    +0.079 A 
DOCKED: ATOM      9  CMA HEM A1501      54.084  79.195   5.331 -0.48 +0.03    +0.032 C 
DOCKED: ATOM     10  C1B HEM A1501      54.710  75.864   8.196 -0.37 +0.04    +0.079 A 
DOCKED: ATOM     11  C2B HEM A1501      54.785  74.482   7.737 -0.47 -0.00    -0.003 A 
DOCKED: ATOM     12  C3B HEM A1501      54.999  73.744   8.857 -0.46 +0.01    +0.015 A 
DOCKED: ATOM     13  C4B HEM A1501      55.079  74.673   9.980 -0.37 +0.03    +0.083 A 
DOCKED: ATOM     14  CMB HEM A1501      54.637  74.043   6.306 -0.58 +0.02    +0.033 C 
DOCKED: ATOM     15  C1C HEM A1501      55.389  75.124  12.415 -0.34 +0.03    +0.079 A 
DOCKED: ATOM     16  C2C HEM A1501      55.718  74.697  13.747 -0.41 -0.00    -0.003 A 
DOCKED: ATOM     17  C3C HEM A1501      55.698  75.814  14.519 -0.38 +0.01    +0.015 A 
DOCKED: ATOM     18  C4C HEM A1501      55.340  76.937  13.630 -0.31 +0.04    +0.083 A 
DOCKED: ATOM     19  CMC HEM A1501      56.015  73.258  14.119 -0.55 +0.01    +0.033 C 
DOCKED: ATOM     20  C1D HEM A1501      54.845  79.415  13.153 -0.30 +0.05    +0.079 A 
DOCKED: ATOM     21  C2D HEM A1501      54.693  80.767  13.596 -0.36 -0.00    -0.007 A 
DOCKED: ATOM     22  C3D HEM A1501      54.443  81.509  12.487 -0.31 -0.00    -0.006 A 
DOCKED: ATOM     23  C4D HEM A1501      54.449  80.603  11.355 -0.21 +0.07    +0.079 A 
DOCKED: ATOM     24  CMD HEM A1501      54.792  81.258  14.986 -0.46 +0.02    +0.032 C 
DOCKED: ATOM     25  NA  HEM A1501      54.491  78.727   9.029 -0.18 -0.19    -0.246 N 
DOCKED: ATOM     26  NB  HEM A1501      54.878  75.939   9.558 -0.14 -0.12    -0.246 N 
DOCKED: ATOM     27  NC  HEM A1501      55.196  76.466  12.390 -0.13 -0.11    -0.246 N 
DOCKED: ATOM     28  ND  HEM A1501      54.700  79.342  11.796 -0.10 -0.17    -0.246 N 
DOCKED: ATOM     29 FE   HEM A1501      54.827  77.624  10.714 -0.07 +0.00    +0.000 Fe
DOCKED: ENDROOT
DOCKED: BRANCH  22  30
DOCKED: ATOM     30  CAD HEM A1501      54.216  82.974  12.502 -0.38 +0.04    +0.039 C 
DOCKED: BRANCH  30  31
DOCKED: ATOM     31  CBD HEM A1501      53.003  83.355  13.350 -0.49 +0.11    +0.102 C 
DOCKED: BRANCH  31  32
DOCKED: ATOM     32  CGD HEM A1501      52.376  84.671  12.929 -0.45 +0.27    +0.186 C 
DOCKED: ATOM     33  O1D HEM A1501      53.078  85.296  12.104 -0.54 -1.49    -0.647 OA
DOCKED: ATOM     34  O2D HEM A1501      51.202  85.066  13.357 -0.52 -0.90    -0.647 OA
DOCKED: ENDBRANCH  31  32
DOCKED: ENDBRANCH  30  31
DOCKED: ENDBRANCH  22  30
DOCKED: BRANCH   6  35
DOCKED: ATOM     35  CAA HEM A1501      53.931  81.812   6.961 -0.43 +0.05    +0.039 C 
DOCKED: BRANCH  35  36
DOCKED: ATOM     36  CBA HEM A1501      52.490  82.267   7.079 -0.55 +0.16    +0.102 C 
DOCKED: BRANCH  36  37
DOCKED: ATOM     37  CGA HEM A1501      52.172  83.525   6.318 -0.62 +0.35    +0.186 C 
DOCKED: ATOM     38  O1A HEM A1501      52.850  84.551   6.557 -1.17 -1.69    -0.647 OA
DOCKED: ATOM     39  O2A HEM A1501      51.279  83.482   5.447 -1.05 -1.25    -0.647 OA
DOCKED: ENDBRANCH  36  37
DOCKED: ENDBRANCH  35  36
DOCKED: ENDBRANCH   6  35
DOCKED: BRANCH  17  40
DOCKED: ATOM     40  CAC HEM A1501      55.962  75.931  15.958 -0.55 +0.00    +0.001 C 
DOCKED: ATOM     41  CBC HEM A1501      55.185  75.485  16.957 -0.63 +0.00    +0.000 C 
DOCKED: ENDBRANCH  17  40
DOCKED: BRANCH  12  42
DOCKED: ATOM     42  CAB HEM A1501      55.152  72.283   9.046 -0.57 +0.00    +0.001 C 
DOCKED: ATOM     43  CBB HEM A1501      55.934  71.604   9.862 -0.58 +0.00    +0.000 C 
DOCKED: ENDBRANCH  12  42
DOCKED: TORSDOF 8
DOCKED: TER
DOCKED: ENDMDL
________________________________________________________________________________


	BEGINNING GENETIC ALGORITHM DOCKING 44 of 100
Run: 44 Seed: 635288513 1666712123 [ Run 44 of 100 GA/GALS ]
Beginning LAMARCKIAN GENETIC ALGORITHM (LGA), with a maximum of 2500000 energy evaluations.

Final-Value: -23.531


	FINAL GENETIC ALGORITHM DOCKED STATE
	_______________________________________________


Detailed state:  trans 54.928 79.011 10.720 quatxyzw -0.180626 0.972891 -0.144371 -0.003670 center 54.495 78.699 10.493 ntor 8 152.7274 -72.5677 -125.0150 167.9155 19.0929 18.1781 -168.4817 149.9522
State:	 54.928  79.011  10.720  -0.181  0.973 -0.144 -179.579    152.73  -72.57 -125.02  167.92   19.09   18.18 -168.48  149.95

DOCKED: MODEL       44
DOCKED: USER    Run = 44
DOCKED: USER    DPF = C:/Users/georg/Desktop/Dock/executables_autodock_tools/receptor.dpf
DOCKED: USER  
DOCKED: USER    Estimated Free Energy of Binding    =  -20.58 kcal/mol  [=(1)+(2)+(3)-(4)]
DOCKED: USER    Estimated Inhibition Constant, Ki   =  819.69 aM (attomolar)  [Temperature = 298.15 K]
DOCKED: USER    
DOCKED: USER    (1) Final Intermolecular Energy     =  -22.97 kcal/mol
DOCKED: USER        vdW + Hbond + desolv Energy     =  -18.62 kcal/mol
DOCKED: USER        Electrostatic Energy            =   -4.35 kcal/mol
DOCKED: USER    (2) Final Total Internal Energy     =   -0.56 kcal/mol
DOCKED: USER    (3) Torsional Free Energy           =   +2.39 kcal/mol
DOCKED: USER    (4) Unbound System's Energy  [=(2)] =   -0.56 kcal/mol
DOCKED: USER    
DOCKED: USER    
DOCKED: USER    NEWDPF move ligand.pdbqt
DOCKED: USER    NEWDPF about 54.495000 78.699000 10.493000
DOCKED: USER    NEWDPF tran0 54.928231 79.011102 10.719852
DOCKED: USER    NEWDPF quaternion0 -0.180626 0.972891 -0.144371 -0.003670
DOCKED: USER    NEWDPF axisangle0 -0.180627 0.972898 -0.144372 -179.579484
DOCKED: USER    NEWDPF quat0 -0.180627 0.972898 -0.144372 -179.579484
DOCKED: USER    NEWDPF dihe0 152.73 -72.57 -125.02 167.92 19.09 18.18 -168.48 149.95 
DOCKED: USER  keepresnum = 1 
DOCKED: USER  
DOCKED: REMARK  8 active torsions:
DOCKED: REMARK  status: ('A' for Active; 'I' for Inactive)
DOCKED: REMARK    1  A    between atoms: C2A_3624  and  CAA_3628 
DOCKED: REMARK    2  A    between atoms: CAA_3628  and  CBA_3629 
DOCKED: REMARK    3  A    between atoms: CBA_3629  and  CGA_3630 
DOCKED: REMARK    4  A    between atoms: C3B_3635  and  CAB_3638 
DOCKED: REMARK    5  A    between atoms: C3C_3642  and  CAC_3645 
DOCKED: REMARK    6  A    between atoms: C3D_3649  and  CAD_3652 
DOCKED: REMARK    7  A    between atoms: CAD_3652  and  CBD_3653 
DOCKED: REMARK    8  A    between atoms: CBD_3653  and  CGD_3654 
DOCKED: USER                              x       y       z     vdW  Elec       q    Type
DOCKED: USER                           _______ _______ _______ _____ _____    ______ ____
DOCKED: ROOT
DOCKED: ATOM      1  CHA HEM A1501      54.149  81.233  10.453 -0.28 +0.04    +0.038 A 
DOCKED: ATOM      2  CHB HEM A1501      54.512  77.455   7.497 -0.38 +0.03    +0.038 A 
DOCKED: ATOM      3  CHC HEM A1501      55.517  74.587  11.244 -0.40 +0.01    +0.038 A 
DOCKED: ATOM      4  CHD HEM A1501      55.218  78.382  14.198 -0.38 +0.02    +0.038 A 
DOCKED: ATOM      5  C1A HEM A1501      54.186  80.457   9.299 -0.26 +0.08    +0.079 A 
DOCKED: ATOM      6  C2A HEM A1501      53.981  80.919   7.923 -0.36 -0.01    -0.006 A 
DOCKED: ATOM      7  C3A HEM A1501      54.084  79.859   7.133 -0.36 -0.01    -0.007 A 
DOCKED: ATOM      8  C4A HEM A1501      54.360  78.740   7.981 -0.32 +0.07    +0.079 A 
DOCKED: ATOM      9  CMA HEM A1501      53.962  79.821   5.640 -0.47 +0.03    +0.032 C 
DOCKED: ATOM     10  C1B HEM A1501      54.788  76.329   8.250 -0.35 +0.05    +0.079 A 
DOCKED: ATOM     11  C2B HEM A1501      54.920  74.989   7.693 -0.47 -0.00    -0.003 A 
DOCKED: ATOM     12  C3B HEM A1501      55.187  74.184   8.754 -0.45 +0.01    +0.015 A 
DOCKED: ATOM     13  C4B HEM A1501      55.242  75.034   9.940 -0.36 +0.03    +0.083 A 
DOCKED: ATOM     14  CMB HEM A1501      54.771  74.646   6.236 -0.59 +0.02    +0.033 C 
DOCKED: ATOM     15  C1C HEM A1501      55.568  75.324  12.397 -0.34 +0.03    +0.079 A 
DOCKED: ATOM     16  C2C HEM A1501      55.938  74.820  13.690 -0.43 -0.00    -0.003 A 
DOCKED: ATOM     17  C3C HEM A1501      55.878  75.877  14.541 -0.39 +0.01    +0.015 A 
DOCKED: ATOM     18  C4C HEM A1501      55.454  77.042  13.740 -0.31 +0.03    +0.083 A 
DOCKED: ATOM     19  CMC HEM A1501      56.308  73.375  13.954 -0.54 +0.01    +0.033 C 
DOCKED: ATOM     20  C1D HEM A1501      54.836  79.521  13.448 -0.32 +0.04    +0.079 A 
DOCKED: ATOM     21  C2D HEM A1501      54.628  80.830  13.989 -0.39 -0.00    -0.007 A 
DOCKED: ATOM     22  C3D HEM A1501      54.325  81.636  12.939 -0.34 -0.00    -0.006 A 
DOCKED: ATOM     23  C4D HEM A1501      54.357  80.814  11.745 -0.24 +0.07    +0.079 A 
DOCKED: ATOM     24  CMD HEM A1501      54.726  81.224  15.409 -0.46 +0.01    +0.032 C 
DOCKED: ATOM     25  NA  HEM A1501      54.449  79.112   9.289 -0.17 -0.20    -0.246 N 
DOCKED: ATOM     26  NB  HEM A1501      54.975  76.315   9.612 -0.04 -0.12    -0.246 N 
DOCKED: ATOM     27  NC  HEM A1501      55.312  76.654  12.471 -0.15 -0.11    -0.246 N 
DOCKED: ATOM     28  ND  HEM A1501      54.673  79.538  12.091 -0.13 -0.17    -0.246 N 
DOCKED: ATOM     29 FE   HEM A1501      54.863  77.910  10.887 -0.07 +0.00    +0.000 Fe
DOCKED: ENDROOT
DOCKED: BRANCH  22  30
DOCKED: ATOM     30  CAD HEM A1501      54.031  83.083  13.062 -0.41 +0.04    +0.039 C 
DOCKED: BRANCH  30  31
DOCKED: ATOM     31  CBD HEM A1501      52.568  83.339  13.425 -0.51 +0.11    +0.102 C 
DOCKED: BRANCH  31  32
DOCKED: ATOM     32  CGD HEM A1501      52.106  84.740  13.068 -0.47 +0.27    +0.186 C 
DOCKED: ATOM     33  O1D HEM A1501      52.856  85.297  12.237 -0.58 -1.40    -0.647 OA
DOCKED: ATOM     34  O2D HEM A1501      51.009  85.269  13.551 -0.79 -0.92    -0.647 OA
DOCKED: ENDBRANCH  31  32
DOCKED: ENDBRANCH  30  31
DOCKED: ENDBRANCH  22  30
DOCKED: BRANCH   6  35
DOCKED: ATOM     35  CAA HEM A1501      53.712  82.306   7.455 -0.43 +0.06    +0.039 C 
DOCKED: BRANCH  35  36
DOCKED: ATOM     36  CBA HEM A1501      52.305  82.451   6.910 -0.57 +0.16    +0.102 C 
DOCKED: BRANCH  36  37
DOCKED: ATOM     37  CGA HEM A1501      52.073  83.711   6.122 -0.64 +0.35    +0.186 C 
DOCKED: ATOM     38  O1A HEM A1501      52.951  84.604   6.156 -1.15 -1.62    -0.647 OA
DOCKED: ATOM     39  O2A HEM A1501      51.037  83.796   5.431 -1.06 -1.35    -0.647 OA
DOCKED: ENDBRANCH  36  37
DOCKED: ENDBRANCH  35  36
DOCKED: ENDBRANCH   6  35
DOCKED: BRANCH  17  40
DOCKED: ATOM     40  CAC HEM A1501      56.160  75.904  15.981 -0.55 +0.00    +0.001 C 
DOCKED: ATOM     41  CBC HEM A1501      55.291  75.659  16.974 -0.64 +0.00    +0.000 C 
DOCKED: ENDBRANCH  17  40
DOCKED: BRANCH  12  42
DOCKED: ATOM     42  CAB HEM A1501      55.411  72.722   8.836 -0.53 +0.00    +0.001 C 
DOCKED: ATOM     43  CBB HEM A1501      54.577  71.745   9.132 -0.55 +0.00    +0.000 C 
DOCKED: ENDBRANCH  12  42
DOCKED: TORSDOF 8
DOCKED: TER
DOCKED: ENDMDL
________________________________________________________________________________


	BEGINNING GENETIC ALGORITHM DOCKING 45 of 100
Run: 45 Seed: 587792837 1668874505 [ Run 45 of 100 GA/GALS ]
Beginning LAMARCKIAN GENETIC ALGORITHM (LGA), with a maximum of 2500000 energy evaluations.

Final-Value: -23.260


	FINAL GENETIC ALGORITHM DOCKED STATE
	_______________________________________________


Detailed state:  trans 54.946 78.854 10.587 quatxyzw -0.156807 0.973430 -0.166765 -0.005987 center 54.495 78.699 10.493 ntor 8 142.7368 50.7630 -141.5623 132.8113 24.3385 15.6809 -153.2928 173.1744
State:	 54.946  78.854  10.587  -0.157  0.973 -0.167 -179.314    142.74   50.76 -141.56  132.81   24.34   15.68 -153.29  173.17

DOCKED: MODEL       45
DOCKED: USER    Run = 45
DOCKED: USER    DPF = C:/Users/georg/Desktop/Dock/executables_autodock_tools/receptor.dpf
DOCKED: USER  
DOCKED: USER    Estimated Free Energy of Binding    =  -20.38 kcal/mol  [=(1)+(2)+(3)-(4)]
DOCKED: USER    Estimated Inhibition Constant, Ki   =    1.16 fM (femtomolar)  [Temperature = 298.15 K]
DOCKED: USER    
DOCKED: USER    (1) Final Intermolecular Energy     =  -22.76 kcal/mol
DOCKED: USER        vdW + Hbond + desolv Energy     =  -18.24 kcal/mol
DOCKED: USER        Electrostatic Energy            =   -4.52 kcal/mol
DOCKED: USER    (2) Final Total Internal Energy     =   -0.50 kcal/mol
DOCKED: USER    (3) Torsional Free Energy           =   +2.39 kcal/mol
DOCKED: USER    (4) Unbound System's Energy  [=(2)] =   -0.50 kcal/mol
DOCKED: USER    
DOCKED: USER    
DOCKED: USER    NEWDPF move ligand.pdbqt
DOCKED: USER    NEWDPF about 54.495000 78.699000 10.493000
DOCKED: USER    NEWDPF tran0 54.945999 78.854484 10.587375
DOCKED: USER    NEWDPF quaternion0 -0.156807 0.973430 -0.166765 -0.005987
DOCKED: USER    NEWDPF axisangle0 -0.156810 0.973447 -0.166768 -179.313939
DOCKED: USER    NEWDPF quat0 -0.156810 0.973447 -0.166768 -179.313939
DOCKED: USER    NEWDPF dihe0 142.74 50.76 -141.56 132.81 24.34 15.68 -153.29 173.17 
DOCKED: USER  keepresnum = 1 
DOCKED: USER  
DOCKED: REMARK  8 active torsions:
DOCKED: REMARK  status: ('A' for Active; 'I' for Inactive)
DOCKED: REMARK    1  A    between atoms: C2A_3624  and  CAA_3628 
DOCKED: REMARK    2  A    between atoms: CAA_3628  and  CBA_3629 
DOCKED: REMARK    3  A    between atoms: CBA_3629  and  CGA_3630 
DOCKED: REMARK    4  A    between atoms: C3B_3635  and  CAB_3638 
DOCKED: REMARK    5  A    between atoms: C3C_3642  and  CAC_3645 
DOCKED: REMARK    6  A    between atoms: C3D_3649  and  CAD_3652 
DOCKED: REMARK    7  A    between atoms: CAD_3652  and  CBD_3653 
DOCKED: REMARK    8  A    between atoms: CBD_3653  and  CGD_3654 
DOCKED: USER                              x       y       z     vdW  Elec       q    Type
DOCKED: USER                           _______ _______ _______ _____ _____    ______ ____
DOCKED: ROOT
DOCKED: ATOM      1  CHA HEM A1501      54.276  81.096  10.212 -0.27 +0.04    +0.038 A 
DOCKED: ATOM      2  CHB HEM A1501      54.518  77.183   7.425 -0.39 +0.03    +0.038 A 
DOCKED: ATOM      3  CHC HEM A1501      55.319  74.435  11.309 -0.40 +0.01    +0.038 A 
DOCKED: ATOM      4  CHD HEM A1501      55.142  78.363  14.094 -0.38 +0.02    +0.038 A 
DOCKED: ATOM      5  C1A HEM A1501      54.298  80.270   9.093 -0.26 +0.08    +0.079 A 
DOCKED: ATOM      6  C2A HEM A1501      54.140  80.682   7.694 -0.34 -0.01    -0.006 A 
DOCKED: ATOM      7  C3A HEM A1501      54.208  79.586   6.952 -0.36 -0.01    -0.007 A 
DOCKED: ATOM      8  C4A HEM A1501      54.417  78.493   7.851 -0.33 +0.06    +0.079 A 
DOCKED: ATOM      9  CMA HEM A1501      54.112  79.490   5.459 -0.48 +0.03    +0.032 C 
DOCKED: ATOM     10  C1B HEM A1501      54.727  76.079   8.230 -0.36 +0.05    +0.079 A 
DOCKED: ATOM     11  C2B HEM A1501      54.807  74.711   7.732 -0.47 -0.00    -0.003 A 
DOCKED: ATOM     12  C3B HEM A1501      55.017  73.941   8.831 -0.45 +0.01    +0.015 A 
DOCKED: ATOM     13  C4B HEM A1501      55.089  74.837   9.982 -0.36 +0.03    +0.083 A 
DOCKED: ATOM     14  CMB HEM A1501      54.669  74.313   6.288 -0.58 +0.02    +0.033 C 
DOCKED: ATOM     15  C1C HEM A1501      55.383  75.218  12.430 -0.34 +0.03    +0.079 A 
DOCKED: ATOM     16  C2C HEM A1501      55.705  74.753  13.751 -0.41 -0.00    -0.003 A 
DOCKED: ATOM     17  C3C HEM A1501      55.678  75.847  14.555 -0.38 +0.01    +0.015 A 
DOCKED: ATOM     18  C4C HEM A1501      55.324  76.995  13.697 -0.31 +0.04    +0.083 A 
DOCKED: ATOM     19  CMC HEM A1501      56.002  73.305  14.083 -0.55 +0.01    +0.033 C 
DOCKED: ATOM     20  C1D HEM A1501      54.827  79.485  13.289 -0.31 +0.05    +0.079 A 
DOCKED: ATOM     21  C2D HEM A1501      54.670  80.823  13.770 -0.37 -0.00    -0.007 A 
DOCKED: ATOM     22  C3D HEM A1501      54.425  81.597  12.682 -0.32 -0.00    -0.006 A 
DOCKED: ATOM     23  C4D HEM A1501      54.440  80.724  11.524 -0.22 +0.07    +0.079 A 
DOCKED: ATOM     24  CMD HEM A1501      54.760  81.273  15.174 -0.47 +0.01    +0.032 C 
DOCKED: ATOM     25  NA  HEM A1501      54.498  78.916   9.145 -0.18 -0.20    -0.246 N 
DOCKED: ATOM     26  NB  HEM A1501      54.888  76.115   9.595 -0.07 -0.12    -0.246 N 
DOCKED: ATOM     27  NC  HEM A1501      55.188  76.559  12.443 -0.13 -0.11    -0.246 N 
DOCKED: ATOM     28  ND  HEM A1501      54.690  79.450  11.929 -0.11 -0.17    -0.246 N 
DOCKED: ATOM     29 FE   HEM A1501      54.826  77.765  10.799 -0.07 +0.00    +0.000 Fe
DOCKED: ENDROOT
DOCKED: BRANCH  22  30
DOCKED: ATOM     30  CAD HEM A1501      54.195  83.060  12.738 -0.38 +0.04    +0.039 C 
DOCKED: BRANCH  30  31
DOCKED: ATOM     31  CBD HEM A1501      52.868  83.404  13.412 -0.50 +0.11    +0.102 C 
DOCKED: BRANCH  31  32
DOCKED: ATOM     32  CGD HEM A1501      52.296  84.732  12.951 -0.45 +0.27    +0.186 C 
DOCKED: ATOM     33  O1D HEM A1501      53.003  85.284  12.080 -0.54 -1.47    -0.647 OA
DOCKED: ATOM     34  O2D HEM A1501      51.158  85.207  13.395 -0.65 -0.93    -0.647 OA
DOCKED: ENDBRANCH  31  32
DOCKED: ENDBRANCH  30  31
DOCKED: ENDBRANCH  22  30
DOCKED: BRANCH   6  35
DOCKED: ATOM     35  CAA HEM A1501      53.945  82.059   7.163 -0.43 +0.05    +0.039 C 
DOCKED: BRANCH  35  36
DOCKED: ATOM     36  CBA HEM A1501      52.477  82.437   7.112 -0.56 +0.16    +0.102 C 
DOCKED: BRANCH  36  37
DOCKED: ATOM     37  CGA HEM A1501      52.188  83.692   6.336 -0.63 +0.36    +0.186 C 
DOCKED: ATOM     38  O1A HEM A1501      52.908  84.697   6.542 -1.09 -1.80    -0.647 OA
DOCKED: ATOM     39  O2A HEM A1501      51.273  83.668   5.487 -1.03 -1.28    -0.647 OA
DOCKED: ENDBRANCH  36  37
DOCKED: ENDBRANCH  35  36
DOCKED: ENDBRANCH   6  35
DOCKED: BRANCH  17  40
DOCKED: ATOM     40  CAC HEM A1501      55.934  75.923  15.998 -0.56 +0.00    +0.001 C 
DOCKED: ATOM     41  CBC HEM A1501      55.017  75.946  16.977 -0.62 +0.00    +0.000 C 
DOCKED: ENDBRANCH  17  40
DOCKED: BRANCH  12  42
DOCKED: ATOM     42  CAB HEM A1501      55.171  72.475   8.979 -0.56 +0.00    +0.001 C 
DOCKED: ATOM     43  CBB HEM A1501      55.607  71.571   8.125 -0.54 +0.00    +0.000 C 
DOCKED: ENDBRANCH  12  42
DOCKED: TORSDOF 8
DOCKED: TER
DOCKED: ENDMDL
________________________________________________________________________________


	BEGINNING GENETIC ALGORITHM DOCKING 46 of 100
Run: 46 Seed: 2071460716 1721566450 [ Run 46 of 100 GA/GALS ]
Beginning LAMARCKIAN GENETIC ALGORITHM (LGA), with a maximum of 2500000 energy evaluations.

Final-Value: -23.161


	FINAL GENETIC ALGORITHM DOCKED STATE
	_______________________________________________


Detailed state:  trans 54.911 78.866 10.561 quatxyzw -0.162174 0.973091 -0.163521 -0.007425 center 54.495 78.699 10.493 ntor 8 141.0303 170.3897 -158.1652 179.9359 -4.2898 -9.3574 -163.2471 141.3938
State:	 54.911  78.866  10.561  -0.162  0.973 -0.164 -179.149    141.03  170.39 -158.17  179.94   -4.29   -9.36 -163.25  141.39

DOCKED: MODEL       46
DOCKED: USER    Run = 46
DOCKED: USER    DPF = C:/Users/georg/Desktop/Dock/executables_autodock_tools/receptor.dpf
DOCKED: USER  
DOCKED: USER    Estimated Free Energy of Binding    =  -20.29 kcal/mol  [=(1)+(2)+(3)-(4)]
DOCKED: USER    Estimated Inhibition Constant, Ki   =    1.33 fM (femtomolar)  [Temperature = 298.15 K]
DOCKED: USER    
DOCKED: USER    (1) Final Intermolecular Energy     =  -22.68 kcal/mol
DOCKED: USER        vdW + Hbond + desolv Energy     =  -18.39 kcal/mol
DOCKED: USER        Electrostatic Energy            =   -4.29 kcal/mol
DOCKED: USER    (2) Final Total Internal Energy     =   -0.48 kcal/mol
DOCKED: USER    (3) Torsional Free Energy           =   +2.39 kcal/mol
DOCKED: USER    (4) Unbound System's Energy  [=(2)] =   -0.48 kcal/mol
DOCKED: USER    
DOCKED: USER    
DOCKED: USER    NEWDPF move ligand.pdbqt
DOCKED: USER    NEWDPF about 54.495000 78.699000 10.493000
DOCKED: USER    NEWDPF tran0 54.910632 78.866182 10.560854
DOCKED: USER    NEWDPF quaternion0 -0.162174 0.973091 -0.163521 -0.007425
DOCKED: USER    NEWDPF axisangle0 -0.162179 0.973117 -0.163526 -179.149152
DOCKED: USER    NEWDPF quat0 -0.162179 0.973117 -0.163526 -179.149152
DOCKED: USER    NEWDPF dihe0 141.03 170.39 -158.17 179.94 -4.29 -9.36 -163.25 141.39 
DOCKED: USER  keepresnum = 1 
DOCKED: USER  
DOCKED: REMARK  8 active torsions:
DOCKED: REMARK  status: ('A' for Active; 'I' for Inactive)
DOCKED: REMARK    1  A    between atoms: C2A_3624  and  CAA_3628 
DOCKED: REMARK    2  A    between atoms: CAA_3628  and  CBA_3629 
DOCKED: REMARK    3  A    between atoms: CBA_3629  and  CGA_3630 
DOCKED: REMARK    4  A    between atoms: C3B_3635  and  CAB_3638 
DOCKED: REMARK    5  A    between atoms: C3C_3642  and  CAC_3645 
DOCKED: REMARK    6  A    between atoms: C3D_3649  and  CAD_3652 
DOCKED: REMARK    7  A    between atoms: CAD_3652  and  CBD_3653 
DOCKED: REMARK    8  A    between atoms: CBD_3653  and  CGD_3654 
DOCKED: USER                              x       y       z     vdW  Elec       q    Type
DOCKED: USER                           _______ _______ _______ _____ _____    ______ ____
DOCKED: ROOT
DOCKED: ATOM      1  CHA HEM A1501      54.216  81.102  10.200 -0.27 +0.04    +0.038 A 
DOCKED: ATOM      2  CHB HEM A1501      54.501  77.211   7.387 -0.39 +0.03    +0.038 A 
DOCKED: ATOM      3  CHC HEM A1501      55.332  74.446  11.253 -0.40 +0.01    +0.038 A 
DOCKED: ATOM      4  CHD HEM A1501      55.113  78.353  14.064 -0.38 +0.02    +0.038 A 
DOCKED: ATOM      5  C1A HEM A1501      54.247  80.285   9.076 -0.26 +0.08    +0.079 A 
DOCKED: ATOM      6  C2A HEM A1501      54.085  80.703   7.679 -0.35 -0.01    -0.006 A 
DOCKED: ATOM      7  C3A HEM A1501      54.165  79.614   6.930 -0.36 -0.01    -0.007 A 
DOCKED: ATOM      8  C4A HEM A1501      54.386  78.516   7.822 -0.33 +0.06    +0.079 A 
DOCKED: ATOM      9  CMA HEM A1501      54.070  79.526   5.437 -0.49 +0.03    +0.032 C 
DOCKED: ATOM     10  C1B HEM A1501      54.723  76.104   8.185 -0.36 +0.05    +0.079 A 
DOCKED: ATOM     11  C2B HEM A1501      54.818  74.740   7.678 -0.47 -0.00    -0.003 A 
DOCKED: ATOM     12  C3B HEM A1501      55.036  73.965   8.772 -0.45 +0.01    +0.015 A 
DOCKED: ATOM     13  C4B HEM A1501      55.098  74.855   9.929 -0.36 +0.03    +0.083 A 
DOCKED: ATOM     14  CMB HEM A1501      54.684  74.350   6.232 -0.58 +0.02    +0.033 C 
DOCKED: ATOM     15  C1C HEM A1501      55.388  75.222  12.379 -0.34 +0.03    +0.079 A 
DOCKED: ATOM     16  C2C HEM A1501      55.715  74.753  13.697 -0.41 -0.00    -0.003 A 
DOCKED: ATOM     17  C3C HEM A1501      55.676  75.841  14.509 -0.38 +0.01    +0.015 A 
DOCKED: ATOM     18  C4C HEM A1501      55.309  76.990  13.658 -0.31 +0.04    +0.083 A 
DOCKED: ATOM     19  CMC HEM A1501      56.029  73.306  14.020 -0.55 +0.01    +0.033 C 
DOCKED: ATOM     20  C1D HEM A1501      54.785  79.477  13.266 -0.31 +0.05    +0.079 A 
DOCKED: ATOM     21  C2D HEM A1501      54.613  80.811  13.757 -0.38 -0.00    -0.007 A 
DOCKED: ATOM     22  C3D HEM A1501      54.359  81.589  12.673 -0.32 -0.00    -0.006 A 
DOCKED: ATOM     23  C4D HEM A1501      54.384  80.723  11.510 -0.22 +0.07    +0.079 A 
DOCKED: ATOM     24  CMD HEM A1501      54.698  81.253  15.163 -0.47 +0.01    +0.032 C 
DOCKED: ATOM     25  NA  HEM A1501      54.462  78.932   9.118 -0.18 -0.20    -0.246 N 
DOCKED: ATOM     26  NB  HEM A1501      54.883  76.132   9.550 -0.09 -0.12    -0.246 N 
DOCKED: ATOM     27  NC  HEM A1501      55.178  76.562  12.401 -0.11 -0.11    -0.246 N 
DOCKED: ATOM     28  ND  HEM A1501      54.648  79.450  11.907 -0.11 -0.17    -0.246 N 
DOCKED: ATOM     29 FE   HEM A1501      54.803  77.774  10.765 -0.07 +0.00    +0.000 Fe
DOCKED: ENDROOT
DOCKED: BRANCH  22  30
DOCKED: ATOM     30  CAD HEM A1501      54.113  83.049  12.739 -0.39 +0.04    +0.039 C 
DOCKED: BRANCH  30  31
DOCKED: ATOM     31  CBD HEM A1501      52.688  83.368  13.188 -0.52 +0.11    +0.102 C 
DOCKED: BRANCH  31  32
DOCKED: ATOM     32  CGD HEM A1501      52.427  84.857  13.316 -0.46 +0.27    +0.186 C 
DOCKED: ATOM     33  O1D HEM A1501      53.480  85.531  13.325 -0.44 -1.21    -0.647 OA
DOCKED: ATOM     34  O2D HEM A1501      51.220  85.365  13.360 -0.69 -0.99    -0.647 OA
DOCKED: ENDBRANCH  31  32
DOCKED: ENDBRANCH  30  31
DOCKED: ENDBRANCH  22  30
DOCKED: BRANCH   6  35
DOCKED: ATOM     35  CAA HEM A1501      53.874  82.082   7.158 -0.44 +0.05    +0.039 C 
DOCKED: BRANCH  35  36
DOCKED: ATOM     36  CBA HEM A1501      52.568  82.199   6.396 -0.57 +0.15    +0.102 C 
DOCKED: BRANCH  36  37
DOCKED: ATOM     37  CGA HEM A1501      52.140  83.614   6.117 -0.64 +0.35    +0.186 C 
DOCKED: ATOM     38  O1A HEM A1501      52.881  84.547   6.503 -1.18 -1.68    -0.647 OA
DOCKED: ATOM     39  O2A HEM A1501      51.087  83.798   5.471 -1.05 -1.34    -0.647 OA
DOCKED: ENDBRANCH  36  37
DOCKED: ENDBRANCH  35  36
DOCKED: ENDBRANCH   6  35
DOCKED: BRANCH  17  40
DOCKED: ATOM     40  CAC HEM A1501      55.932  75.910  15.952 -0.55 +0.00    +0.001 C 
DOCKED: ATOM     41  CBC HEM A1501      55.013  75.949  16.930 -0.61 +0.00    +0.000 C 
DOCKED: ENDBRANCH  17  40
DOCKED: BRANCH  12  42
DOCKED: ATOM     42  CAB HEM A1501      55.206  72.500   8.911 -0.56 +0.00    +0.001 C 
DOCKED: ATOM     43  CBB HEM A1501      55.944  71.802   9.750 -0.56 +0.00    +0.000 C 
DOCKED: ENDBRANCH  12  42
DOCKED: TORSDOF 8
DOCKED: TER
DOCKED: ENDMDL
________________________________________________________________________________


	BEGINNING GENETIC ALGORITHM DOCKING 47 of 100
Run: 47 Seed: 208300988 71740477 [ Run 47 of 100 GA/GALS ]
Beginning LAMARCKIAN GENETIC ALGORITHM (LGA), with a maximum of 2500000 energy evaluations.

Final-Value: -23.342


	FINAL GENETIC ALGORITHM DOCKED STATE
	_______________________________________________


Detailed state:  trans 54.291 78.919 10.519 quatxyzw -0.021621 -0.021395 0.030265 -0.999079 center 54.495 78.699 10.493 ntor 8 3.6580 -23.8967 179.7757 171.5754 -2.2898 -21.8324 8.2862 6.0976
State:	 54.291  78.919  10.519  -0.504 -0.499  0.705 -4.919      3.66  -23.90  179.78  171.58   -2.29  -21.83    8.29    6.10

DOCKED: MODEL       47
DOCKED: USER    Run = 47
DOCKED: USER    DPF = C:/Users/georg/Desktop/Dock/executables_autodock_tools/receptor.dpf
DOCKED: USER  
DOCKED: USER    Estimated Free Energy of Binding    =  -20.34 kcal/mol  [=(1)+(2)+(3)-(4)]
DOCKED: USER    Estimated Inhibition Constant, Ki   =    1.23 fM (femtomolar)  [Temperature = 298.15 K]
DOCKED: USER    
DOCKED: USER    (1) Final Intermolecular Energy     =  -22.73 kcal/mol
DOCKED: USER        vdW + Hbond + desolv Energy     =  -18.57 kcal/mol
DOCKED: USER        Electrostatic Energy            =   -4.15 kcal/mol
DOCKED: USER    (2) Final Total Internal Energy     =   -0.62 kcal/mol
DOCKED: USER    (3) Torsional Free Energy           =   +2.39 kcal/mol
DOCKED: USER    (4) Unbound System's Energy  [=(2)] =   -0.62 kcal/mol
DOCKED: USER    
DOCKED: USER    
DOCKED: USER    NEWDPF move ligand.pdbqt
DOCKED: USER    NEWDPF about 54.495000 78.699000 10.493000
DOCKED: USER    NEWDPF tran0 54.290860 78.919332 10.519095
DOCKED: USER    NEWDPF quaternion0 -0.021621 -0.021395 0.030265 -0.999079
DOCKED: USER    NEWDPF axisangle0 -0.503881 -0.498608 0.705333 -4.918544
DOCKED: USER    NEWDPF quat0 -0.503881 -0.498608 0.705333 -4.918544
DOCKED: USER    NEWDPF dihe0 3.66 -23.90 179.78 171.58 -2.29 -21.83 8.29 6.10 
DOCKED: USER  keepresnum = 1 
DOCKED: USER  
DOCKED: REMARK  8 active torsions:
DOCKED: REMARK  status: ('A' for Active; 'I' for Inactive)
DOCKED: REMARK    1  A    between atoms: C2A_3624  and  CAA_3628 
DOCKED: REMARK    2  A    between atoms: CAA_3628  and  CBA_3629 
DOCKED: REMARK    3  A    between atoms: CBA_3629  and  CGA_3630 
DOCKED: REMARK    4  A    between atoms: C3B_3635  and  CAB_3638 
DOCKED: REMARK    5  A    between atoms: C3C_3642  and  CAC_3645 
DOCKED: REMARK    6  A    between atoms: C3D_3649  and  CAD_3652 
DOCKED: REMARK    7  A    between atoms: CAD_3652  and  CBD_3653 
DOCKED: REMARK    8  A    between atoms: CBD_3653  and  CGD_3654 
DOCKED: USER                              x       y       z     vdW  Elec       q    Type
DOCKED: USER                           _______ _______ _______ _____ _____    ______ ____
DOCKED: ROOT
DOCKED: ATOM      1  CHA HEM A1501      54.103  81.223  10.001 -0.29 +0.04    +0.038 A 
DOCKED: ATOM      2  CHB HEM A1501      54.946  78.782  14.059 -0.39 +0.02    +0.038 A 
DOCKED: ATOM      3  CHC HEM A1501      55.544  74.722  11.521 -0.39 +0.01    +0.038 A 
DOCKED: ATOM      4  CHD HEM A1501      54.634  77.154   7.463 -0.38 +0.03    +0.038 A 
DOCKED: ATOM      5  C1A HEM A1501      54.254  80.912  11.349 -0.22 +0.07    +0.079 A 
DOCKED: ATOM      6  C2A HEM A1501      54.117  81.829  12.484 -0.35 -0.01    -0.006 A 
DOCKED: ATOM      7  C3A HEM A1501      54.357  81.132  13.585 -0.38 -0.00    -0.007 A 
DOCKED: ATOM      8  C4A HEM A1501      54.632  79.790  13.170 -0.31 +0.05    +0.079 A 
DOCKED: ATOM      9  CMA HEM A1501      54.328  81.624  15.000 -0.45 +0.02    +0.032 C 
DOCKED: ATOM     10  C1B HEM A1501      55.214  77.464  13.735 -0.33 +0.03    +0.079 A 
DOCKED: ATOM     11  C2B HEM A1501      55.562  76.440  14.712 -0.41 -0.00    -0.003 A 
DOCKED: ATOM     12  C3B HEM A1501      55.744  75.303  13.990 -0.38 +0.01    +0.015 A 
DOCKED: ATOM     13  C4B HEM A1501      55.484  75.632  12.591 -0.32 +0.03    +0.083 A 
DOCKED: ATOM     14  CMB HEM A1501      55.682  76.670  16.193 -0.53 +0.01    +0.033 C 
DOCKED: ATOM     15  C1C HEM A1501      55.327  74.966  10.192 -0.36 +0.03    +0.079 A 
DOCKED: ATOM     16  C2C HEM A1501      55.321  73.971   9.154 -0.46 -0.00    -0.003 A 
DOCKED: ATOM     17  C3C HEM A1501      55.050  74.631   7.999 -0.45 +0.01    +0.015 A 
DOCKED: ATOM     18  C4C HEM A1501      54.897  76.056   8.350 -0.35 +0.05    +0.083 A 
DOCKED: ATOM     19  CMC HEM A1501      55.578  72.498   9.401 -0.52 +0.01    +0.033 C 
DOCKED: ATOM     20  C1D HEM A1501      54.458  78.524   7.776 -0.32 +0.06    +0.079 A 
DOCKED: ATOM     21  C2D HEM A1501      54.192  79.558   6.822 -0.37 -0.01    -0.007 A 
DOCKED: ATOM     22  C3D HEM A1501      54.042  80.706   7.532 -0.36 -0.01    -0.006 A 
DOCKED: ATOM     23  C4D HEM A1501      54.212  80.369   8.932 -0.27 +0.08    +0.079 A 
DOCKED: ATOM     24  CMD HEM A1501      54.095  79.403   5.357 -0.49 +0.03    +0.032 C 
DOCKED: ATOM     25  NA  HEM A1501      54.541  79.656  11.816 -0.12 -0.18    -0.246 N 
DOCKED: ATOM     26  NB  HEM A1501      55.191  76.943  12.463 -0.11 -0.11    -0.246 N 
DOCKED: ATOM     27  NC  HEM A1501      55.047  76.185   9.669 -0.09 -0.12    -0.246 N 
DOCKED: ATOM     28  ND  HEM A1501      54.460  79.037   9.043 -0.19 -0.20    -0.246 N 
DOCKED: ATOM     29 FE   HEM A1501      54.800  77.948  10.727 -0.07 +0.00    +0.000 Fe
DOCKED: ENDROOT
DOCKED: BRANCH  22  30
DOCKED: ATOM     30  CAD HEM A1501      53.757  82.026   6.923 -0.46 +0.05    +0.039 C 
DOCKED: BRANCH  30  31
DOCKED: ATOM     31  CBD HEM A1501      52.257  82.314   6.861 -0.57 +0.16    +0.102 C 
DOCKED: BRANCH  31  32
DOCKED: ATOM     32  CGD HEM A1501      51.938  83.665   6.247 -0.61 +0.36    +0.186 C 
DOCKED: ATOM     33  O1D HEM A1501      52.768  84.545   6.563 -1.15 -1.67    -0.647 OA
DOCKED: ATOM     34  O2D HEM A1501      50.927  83.853   5.435 -0.98 -1.39    -0.647 OA
DOCKED: ENDBRANCH  31  32
DOCKED: ENDBRANCH  30  31
DOCKED: ENDBRANCH  22  30
DOCKED: BRANCH   6  35
DOCKED: ATOM     35  CAA HEM A1501      53.770  83.276  12.452 -0.43 +0.05    +0.039 C 
DOCKED: BRANCH  35  36
DOCKED: ATOM     36  CBA HEM A1501      52.338  83.519  12.888 -0.48 +0.12    +0.102 C 
DOCKED: BRANCH  36  37
DOCKED: ATOM     37  CGA HEM A1501      52.088  84.886  13.462 -0.49 +0.26    +0.186 C 
DOCKED: ATOM     38  O1A HEM A1501      53.071  85.637  13.660 -0.49 -1.14    -0.647 OA
DOCKED: ATOM     39  O2A HEM A1501      50.908  85.234  13.674 -0.84 -0.90    -0.647 OA
DOCKED: ENDBRANCH  36  37
DOCKED: ENDBRANCH  35  36
DOCKED: ENDBRANCH   6  35
DOCKED: BRANCH  17  40
DOCKED: ATOM     40  CAC HEM A1501      54.931  74.081   6.643 -0.59 +0.00    +0.001 C 
DOCKED: ATOM     41  CBC HEM A1501      53.872  74.180   5.825 -0.65 +0.00    +0.000 C 
DOCKED: ENDBRANCH  17  40
DOCKED: BRANCH  12  42
DOCKED: ATOM     42  CAB HEM A1501      56.122  73.934  14.408 -0.55 +0.00    +0.001 C 
DOCKED: ATOM     43  CBB HEM A1501      57.087  73.519  15.204 -0.61 +0.00    +0.000 C 
DOCKED: ENDBRANCH  12  42
DOCKED: TORSDOF 8
DOCKED: TER
DOCKED: ENDMDL
________________________________________________________________________________


	BEGINNING GENETIC ALGORITHM DOCKING 48 of 100
Run: 48 Seed: 1459258878 1598039554 [ Run 48 of 100 GA/GALS ]
Beginning LAMARCKIAN GENETIC ALGORITHM (LGA), with a maximum of 2500000 energy evaluations.

Final-Value: -23.395


	FINAL GENETIC ALGORITHM DOCKED STATE
	_______________________________________________


Detailed state:  trans 54.881 79.072 10.702 quatxyzw 0.186526 -0.967857 0.166919 0.024461 center 54.495 78.699 10.493 ntor 8 -180.0000 -62.1226 -147.5318 175.2423 -15.4061 -5.2945 -168.0897 143.9149
State:	 54.881  79.072  10.702   0.187 -0.968  0.167 177.197   -180.00  -62.12 -147.53  175.24  -15.41   -5.29 -168.09  143.91

DOCKED: MODEL       48
DOCKED: USER    Run = 48
DOCKED: USER    DPF = C:/Users/georg/Desktop/Dock/executables_autodock_tools/receptor.dpf
DOCKED: USER  
DOCKED: USER    Estimated Free Energy of Binding    =  -20.46 kcal/mol  [=(1)+(2)+(3)-(4)]
DOCKED: USER    Estimated Inhibition Constant, Ki   =    1.00 fM (femtomolar)  [Temperature = 298.15 K]
DOCKED: USER    
DOCKED: USER    (1) Final Intermolecular Energy     =  -22.85 kcal/mol
DOCKED: USER        vdW + Hbond + desolv Energy     =  -18.65 kcal/mol
DOCKED: USER        Electrostatic Energy            =   -4.20 kcal/mol
DOCKED: USER    (2) Final Total Internal Energy     =   -0.55 kcal/mol
DOCKED: USER    (3) Torsional Free Energy           =   +2.39 kcal/mol
DOCKED: USER    (4) Unbound System's Energy  [=(2)] =   -0.55 kcal/mol
DOCKED: USER    
DOCKED: USER    
DOCKED: USER    NEWDPF move ligand.pdbqt
DOCKED: USER    NEWDPF about 54.495000 78.699000 10.493000
DOCKED: USER    NEWDPF tran0 54.881187 79.072413 10.701626
DOCKED: USER    NEWDPF quaternion0 0.186526 -0.967857 0.166919 0.024461
DOCKED: USER    NEWDPF axisangle0 0.186582 -0.968147 0.166969 177.196752
DOCKED: USER    NEWDPF quat0 0.186582 -0.968147 0.166969 177.196752
DOCKED: USER    NEWDPF dihe0 -180.00 -62.12 -147.53 175.24 -15.41 -5.29 -168.09 143.91 
DOCKED: USER  keepresnum = 1 
DOCKED: USER  
DOCKED: REMARK  8 active torsions:
DOCKED: REMARK  status: ('A' for Active; 'I' for Inactive)
DOCKED: REMARK    1  A    between atoms: C2A_3624  and  CAA_3628 
DOCKED: REMARK    2  A    between atoms: CAA_3628  and  CBA_3629 
DOCKED: REMARK    3  A    between atoms: CBA_3629  and  CGA_3630 
DOCKED: REMARK    4  A    between atoms: C3B_3635  and  CAB_3638 
DOCKED: REMARK    5  A    between atoms: C3C_3642  and  CAC_3645 
DOCKED: REMARK    6  A    between atoms: C3D_3649  and  CAD_3652 
DOCKED: REMARK    7  A    between atoms: CAD_3652  and  CBD_3653 
DOCKED: REMARK    8  A    between atoms: CBD_3653  and  CGD_3654 
DOCKED: USER                              x       y       z     vdW  Elec       q    Type
DOCKED: USER                           _______ _______ _______ _____ _____    ______ ____
DOCKED: ROOT
DOCKED: ATOM      1  CHA HEM A1501      54.075  81.266  10.314 -0.29 +0.04    +0.038 A 
DOCKED: ATOM      2  CHB HEM A1501      54.647  77.389   7.525 -0.37 +0.03    +0.038 A 
DOCKED: ATOM      3  CHC HEM A1501      55.525  74.684  11.422 -0.40 +0.01    +0.038 A 
DOCKED: ATOM      4  CHD HEM A1501      55.018  78.580  14.211 -0.39 +0.02    +0.038 A 
DOCKED: ATOM      5  C1A HEM A1501      54.181  80.449   9.194 -0.26 +0.08    +0.079 A 
DOCKED: ATOM      6  C2A HEM A1501      54.033  80.855   7.792 -0.35 -0.01    -0.006 A 
DOCKED: ATOM      7  C3A HEM A1501      54.192  79.769   7.049 -0.36 -0.01    -0.007 A 
DOCKED: ATOM      8  C4A HEM A1501      54.449  78.688   7.951 -0.31 +0.06    +0.079 A 
DOCKED: ATOM      9  CMA HEM A1501      54.141  79.673   5.555 -0.48 +0.03    +0.032 C 
DOCKED: ATOM     10  C1B HEM A1501      54.907  76.298   8.333 -0.33 +0.05    +0.079 A 
DOCKED: ATOM     11  C2B HEM A1501      55.090  74.940   7.834 -0.46 -0.00    -0.003 A 
DOCKED: ATOM     12  C3B HEM A1501      55.321  74.181   8.936 -0.44 +0.01    +0.015 A 
DOCKED: ATOM     13  C4B HEM A1501      55.304  75.076  10.090 -0.35 +0.03    +0.083 A 
DOCKED: ATOM     14  CMB HEM A1501      55.016  74.540   6.386 -0.58 +0.02    +0.033 C 
DOCKED: ATOM     15  C1C HEM A1501      55.508  75.464  12.546 -0.33 +0.03    +0.079 A 
DOCKED: ATOM     16  C2C HEM A1501      55.826  75.017  13.874 -0.41 -0.00    -0.003 A 
DOCKED: ATOM     17  C3C HEM A1501      55.706  76.103  14.680 -0.39 +0.01    +0.015 A 
DOCKED: ATOM     18  C4C HEM A1501      55.299  77.228  13.816 -0.32 +0.04    +0.083 A 
DOCKED: ATOM     19  CMC HEM A1501      56.209  73.590  14.210 -0.54 +0.01    +0.033 C 
DOCKED: ATOM     20  C1D HEM A1501      54.651  79.682  13.401 -0.33 +0.05    +0.079 A 
DOCKED: ATOM     21  C2D HEM A1501      54.393  81.006  13.881 -0.40 -0.00    -0.007 A 
DOCKED: ATOM     22  C3D HEM A1501      54.126  81.766  12.788 -0.36 -0.01    -0.006 A 
DOCKED: ATOM     23  C4D HEM A1501      54.229  80.900  11.629 -0.23 +0.07    +0.079 A 
DOCKED: ATOM     24  CMD HEM A1501      54.417  81.455  15.288 -0.47 +0.02    +0.032 C 
DOCKED: ATOM     25  NA  HEM A1501      54.468  79.110   9.248 -0.18 -0.20    -0.246 N 
DOCKED: ATOM     26  NB  HEM A1501      55.029  76.339   9.701 -0.02 -0.12    -0.246 N 
DOCKED: ATOM     27  NC  HEM A1501      55.225  76.790  12.557 -0.15 -0.11    -0.246 N 
DOCKED: ATOM     28  ND  HEM A1501      54.551  79.645  12.038 -0.13 -0.18    -0.246 N 
DOCKED: ATOM     29 FE   HEM A1501      54.828  77.977  10.908 -0.07 +0.00    +0.000 Fe
DOCKED: ENDROOT
DOCKED: BRANCH  22  30
DOCKED: ATOM     30  CAD HEM A1501      53.800  83.210  12.842 -0.44 +0.04    +0.039 C 
DOCKED: BRANCH  30  31
DOCKED: ATOM     31  CBD HEM A1501      52.319  83.451  13.136 -0.50 +0.11    +0.102 C 
DOCKED: BRANCH  31  32
DOCKED: ATOM     32  CGD HEM A1501      52.016  84.888  13.514 -0.50 +0.26    +0.186 C 
DOCKED: ATOM     33  O1D HEM A1501      53.047  85.591  13.599 -0.47 -1.15    -0.647 OA
DOCKED: ATOM     34  O2D HEM A1501      50.796  85.336  13.679 -0.95 -0.91    -0.647 OA
DOCKED: ENDBRANCH  31  32
DOCKED: ENDBRANCH  30  31
DOCKED: ENDBRANCH  22  30
DOCKED: BRANCH   6  35
DOCKED: ATOM     35  CAA HEM A1501      53.761  82.218   7.260 -0.45 +0.06    +0.039 C 
DOCKED: BRANCH  35  36
DOCKED: ATOM     36  CBA HEM A1501      52.441  82.277   6.516 -0.58 +0.15    +0.102 C 
DOCKED: BRANCH  36  37
DOCKED: ATOM     37  CGA HEM A1501      52.001  83.666   6.144 -0.63 +0.35    +0.186 C 
DOCKED: ATOM     38  O1A HEM A1501      52.700  84.633   6.526 -1.07 -1.70    -0.647 OA
DOCKED: ATOM     39  O2A HEM A1501      50.985  83.795   5.431 -1.04 -1.37    -0.647 OA
DOCKED: ENDBRANCH  36  37
DOCKED: ENDBRANCH  35  36
DOCKED: ENDBRANCH   6  35
DOCKED: BRANCH  17  40
DOCKED: ATOM     40  CAC HEM A1501      55.919  76.190  16.129 -0.57 +0.00    +0.001 C 
DOCKED: ATOM     41  CBC HEM A1501      55.251  75.520  17.081 -0.65 +0.00    +0.000 C 
DOCKED: ENDBRANCH  17  40
DOCKED: BRANCH  12  42
DOCKED: ATOM     42  CAB HEM A1501      55.567  72.728   9.085 -0.52 +0.00    +0.001 C 
DOCKED: ATOM     43  CBB HEM A1501      54.719  71.725   9.198 -0.56 +0.00    +0.000 C 
DOCKED: ENDBRANCH  12  42
DOCKED: TORSDOF 8
DOCKED: TER
DOCKED: ENDMDL
________________________________________________________________________________


	BEGINNING GENETIC ALGORITHM DOCKING 49 of 100
Run: 49 Seed: 236551138 763749196 [ Run 49 of 100 GA/GALS ]
Beginning LAMARCKIAN GENETIC ALGORITHM (LGA), with a maximum of 2500000 energy evaluations.

Final-Value: -23.011


	FINAL GENETIC ALGORITHM DOCKED STATE
	_______________________________________________


Detailed state:  trans 54.895 78.917 10.543 quatxyzw -0.175320 0.964315 -0.197765 -0.015793 center 54.495 78.699 10.493 ntor 8 -179.8900 21.7510 27.0539 128.5174 -26.9428 7.7116 -165.4664 -179.1001
State:	 54.895  78.917  10.543  -0.175  0.964 -0.198 -178.190   -179.89   21.75   27.05  128.52  -26.94    7.71 -165.47 -179.10

DOCKED: MODEL       49
DOCKED: USER    Run = 49
DOCKED: USER    DPF = C:/Users/georg/Desktop/Dock/executables_autodock_tools/receptor.dpf
DOCKED: USER  
DOCKED: USER    Estimated Free Energy of Binding    =  -20.06 kcal/mol  [=(1)+(2)+(3)-(4)]
DOCKED: USER    Estimated Inhibition Constant, Ki   =    1.97 fM (femtomolar)  [Temperature = 298.15 K]
DOCKED: USER    
DOCKED: USER    (1) Final Intermolecular Energy     =  -22.45 kcal/mol
DOCKED: USER        vdW + Hbond + desolv Energy     =  -18.37 kcal/mol
DOCKED: USER        Electrostatic Energy            =   -4.08 kcal/mol
DOCKED: USER    (2) Final Total Internal Energy     =   -0.56 kcal/mol
DOCKED: USER    (3) Torsional Free Energy           =   +2.39 kcal/mol
DOCKED: USER    (4) Unbound System's Energy  [=(2)] =   -0.56 kcal/mol
DOCKED: USER    
DOCKED: USER    
DOCKED: USER    NEWDPF move ligand.pdbqt
DOCKED: USER    NEWDPF about 54.495000 78.699000 10.493000
DOCKED: USER    NEWDPF tran0 54.894790 78.916938 10.542827
DOCKED: USER    NEWDPF quaternion0 -0.175320 0.964315 -0.197765 -0.015793
DOCKED: USER    NEWDPF axisangle0 -0.175342 0.964435 -0.197790 -178.190201
DOCKED: USER    NEWDPF quat0 -0.175342 0.964435 -0.197790 -178.190201
DOCKED: USER    NEWDPF dihe0 -179.89 21.75 27.05 128.52 -26.94 7.71 -165.47 -179.10 
DOCKED: USER  keepresnum = 1 
DOCKED: USER  
DOCKED: REMARK  8 active torsions:
DOCKED: REMARK  status: ('A' for Active; 'I' for Inactive)
DOCKED: REMARK    1  A    between atoms: C2A_3624  and  CAA_3628 
DOCKED: REMARK    2  A    between atoms: CAA_3628  and  CBA_3629 
DOCKED: REMARK    3  A    between atoms: CBA_3629  and  CGA_3630 
DOCKED: REMARK    4  A    between atoms: C3B_3635  and  CAB_3638 
DOCKED: REMARK    5  A    between atoms: C3C_3642  and  CAC_3645 
DOCKED: REMARK    6  A    between atoms: C3D_3649  and  CAD_3652 
DOCKED: REMARK    7  A    between atoms: CAD_3652  and  CBD_3653 
DOCKED: REMARK    8  A    between atoms: CBD_3653  and  CGD_3654 
DOCKED: USER                              x       y       z     vdW  Elec       q    Type
DOCKED: USER                           _______ _______ _______ _____ _____    ______ ____
DOCKED: ROOT
DOCKED: ATOM      1  CHA HEM A1501      54.143  81.101  10.017 -0.28 +0.04    +0.038 A 
DOCKED: ATOM      2  CHB HEM A1501      54.612  77.042   7.479 -0.39 +0.03    +0.038 A 
DOCKED: ATOM      3  CHC HEM A1501      55.431  74.569  11.540 -0.40 +0.01    +0.038 A 
DOCKED: ATOM      4  CHD HEM A1501      55.027  78.645  14.076 -0.39 +0.02    +0.038 A 
DOCKED: ATOM      5  C1A HEM A1501      54.226  80.212   8.951 -0.27 +0.08    +0.079 A 
DOCKED: ATOM      6  C2A HEM A1501      54.084  80.531   7.527 -0.35 -0.01    -0.006 A 
DOCKED: ATOM      7  C3A HEM A1501      54.215  79.397   6.854 -0.37 -0.01    -0.007 A 
DOCKED: ATOM      8  C4A HEM A1501      54.447  78.369   7.823 -0.33 +0.06    +0.079 A 
DOCKED: ATOM      9  CMA HEM A1501      54.159  79.207   5.369 -0.48 +0.03    +0.032 C 
DOCKED: ATOM     10  C1B HEM A1501      54.847  75.998   8.355 -0.36 +0.04    +0.079 A 
DOCKED: ATOM     11  C2B HEM A1501      54.995  74.607   7.943 -0.46 -0.00    -0.003 A 
DOCKED: ATOM     12  C3B HEM A1501      55.210  73.914   9.092 -0.45 +0.01    +0.015 A 
DOCKED: ATOM     13  C4B HEM A1501      55.217  74.880  10.186 -0.36 +0.03    +0.083 A 
DOCKED: ATOM     14  CMB HEM A1501      54.908  74.118   6.524 -0.57 +0.02    +0.033 C 
DOCKED: ATOM     15  C1C HEM A1501      55.436  75.419  12.613 -0.33 +0.03    +0.079 A 
DOCKED: ATOM     16  C2C HEM A1501      55.746  75.049  13.966 -0.40 -0.00    -0.003 A 
DOCKED: ATOM     17  C3C HEM A1501      55.655  76.187  14.701 -0.39 +0.01    +0.015 A 
DOCKED: ATOM     18  C4C HEM A1501      55.274  77.265  13.768 -0.32 +0.04    +0.083 A 
DOCKED: ATOM     19  CMC HEM A1501      56.094  73.637  14.392 -0.54 +0.01    +0.033 C 
DOCKED: ATOM     20  C1D HEM A1501      54.686  79.703  13.198 -0.31 +0.05    +0.079 A 
DOCKED: ATOM     21  C2D HEM A1501      54.462  81.060  13.593 -0.38 -0.00    -0.007 A 
DOCKED: ATOM     22  C3D HEM A1501      54.211  81.755  12.454 -0.34 -0.01    -0.006 A 
DOCKED: ATOM     23  C4D HEM A1501      54.290  80.816  11.352 -0.22 +0.07    +0.079 A 
DOCKED: ATOM     24  CMD HEM A1501      54.500  81.597  14.969 -0.46 +0.02    +0.032 C 
DOCKED: ATOM     25  NA  HEM A1501      54.480  78.873   9.090 -0.18 -0.20    -0.246 N 
DOCKED: ATOM     26  NB  HEM A1501      54.973  76.122   9.718 -0.04 -0.12    -0.246 N 
DOCKED: ATOM     27  NC  HEM A1501      55.186  76.749  12.540 -0.14 -0.11    -0.246 N 
DOCKED: ATOM     28  ND  HEM A1501      54.582  79.581  11.840 -0.11 -0.18    -0.246 N 
DOCKED: ATOM     29 FE   HEM A1501      54.815  77.838  10.818 -0.07 +0.00    +0.000 Fe
DOCKED: ENDROOT
DOCKED: BRANCH  22  30
DOCKED: ATOM     30  CAD HEM A1501      53.921  83.208  12.416 -0.41 +0.05    +0.039 C 
DOCKED: BRANCH  30  31
DOCKED: ATOM     31  CBD HEM A1501      52.461  83.508  12.758 -0.48 +0.12    +0.102 C 
DOCKED: BRANCH  31  32
DOCKED: ATOM     32  CGD HEM A1501      52.257  84.906  13.311 -0.47 +0.27    +0.186 C 
DOCKED: ATOM     33  O1D HEM A1501      51.049  85.214  13.406 -0.70 -0.92    -0.647 OA
DOCKED: ATOM     34  O2D HEM A1501      53.252  85.671  13.688 -0.47 -1.13    -0.647 OA
DOCKED: ENDBRANCH  31  32
DOCKED: ENDBRANCH  30  31
DOCKED: ENDBRANCH  22  30
DOCKED: BRANCH   6  35
DOCKED: ATOM     35  CAA HEM A1501      53.845  81.864   6.909 -0.45 +0.05    +0.039 C 
DOCKED: BRANCH  35  36
DOCKED: ATOM     36  CBA HEM A1501      52.383  82.258   6.974 -0.56 +0.16    +0.102 C 
DOCKED: BRANCH  36  37
DOCKED: ATOM     37  CGA HEM A1501      52.060  83.557   6.287 -0.61 +0.35    +0.186 C 
DOCKED: ATOM     38  O1A HEM A1501      52.754  84.563   6.562 -1.14 -1.68    -0.647 OA
DOCKED: ATOM     39  O2A HEM A1501      51.144  83.568   5.439 -1.05 -1.30    -0.647 OA
DOCKED: ENDBRANCH  36  37
DOCKED: ENDBRANCH  35  36
DOCKED: ENDBRANCH   6  35
DOCKED: BRANCH  17  40
DOCKED: ATOM     40  CAC HEM A1501      55.873  76.360  16.142 -0.57 +0.00    +0.001 C 
DOCKED: ATOM     41  CBC HEM A1501      55.192  75.767  17.135 -0.66 +0.00    +0.000 C 
DOCKED: ENDBRANCH  17  40
DOCKED: BRANCH  12  42
DOCKED: ATOM     42  CAB HEM A1501      55.420  72.468   9.332 -0.56 +0.00    +0.001 C 
DOCKED: ATOM     43  CBB HEM A1501      55.420  71.453   8.491 -0.55 +0.00    +0.000 C 
DOCKED: ENDBRANCH  12  42
DOCKED: TORSDOF 8
DOCKED: TER
DOCKED: ENDMDL
________________________________________________________________________________


	BEGINNING GENETIC ALGORITHM DOCKING 50 of 100
Run: 50 Seed: 89444500 1855794656 [ Run 50 of 100 GA/GALS ]
Beginning LAMARCKIAN GENETIC ALGORITHM (LGA), with a maximum of 2500000 energy evaluations.

Final-Value: -22.760


	FINAL GENETIC ALGORITHM DOCKED STATE
	_______________________________________________


Detailed state:  trans 54.931 78.957 10.649 quatxyzw -0.170080 0.970626 -0.169828 -0.010842 center 54.495 78.699 10.493 ntor 8 153.9394 -178.6919 63.6778 -23.3807 -33.6902 7.0333 172.8669 159.9817
State:	 54.931  78.957  10.649  -0.170  0.971 -0.170 -178.758    153.94 -178.69   63.68  -23.38  -33.69    7.03  172.87  159.98

DOCKED: MODEL       50
DOCKED: USER    Run = 50
DOCKED: USER    DPF = C:/Users/georg/Desktop/Dock/executables_autodock_tools/receptor.dpf
DOCKED: USER  
DOCKED: USER    Estimated Free Energy of Binding    =  -19.84 kcal/mol  [=(1)+(2)+(3)-(4)]
DOCKED: USER    Estimated Inhibition Constant, Ki   =    2.88 fM (femtomolar)  [Temperature = 298.15 K]
DOCKED: USER    
DOCKED: USER    (1) Final Intermolecular Energy     =  -22.22 kcal/mol
DOCKED: USER        vdW + Hbond + desolv Energy     =  -18.14 kcal/mol
DOCKED: USER        Electrostatic Energy            =   -4.08 kcal/mol
DOCKED: USER    (2) Final Total Internal Energy     =   -0.54 kcal/mol
DOCKED: USER    (3) Torsional Free Energy           =   +2.39 kcal/mol
DOCKED: USER    (4) Unbound System's Energy  [=(2)] =   -0.54 kcal/mol
DOCKED: USER    
DOCKED: USER    
DOCKED: USER    NEWDPF move ligand.pdbqt
DOCKED: USER    NEWDPF about 54.495000 78.699000 10.493000
DOCKED: USER    NEWDPF tran0 54.931004 78.957366 10.649201
DOCKED: USER    NEWDPF quaternion0 -0.170080 0.970626 -0.169828 -0.010842
DOCKED: USER    NEWDPF axisangle0 -0.170090 0.970683 -0.169838 -178.757610
DOCKED: USER    NEWDPF quat0 -0.170090 0.970683 -0.169838 -178.757610
DOCKED: USER    NEWDPF dihe0 153.94 -178.69 63.68 -23.38 -33.69 7.03 172.87 159.98 
DOCKED: USER  keepresnum = 1 
DOCKED: USER  
DOCKED: REMARK  8 active torsions:
DOCKED: REMARK  status: ('A' for Active; 'I' for Inactive)
DOCKED: REMARK    1  A    between atoms: C2A_3624  and  CAA_3628 
DOCKED: REMARK    2  A    between atoms: CAA_3628  and  CBA_3629 
DOCKED: REMARK    3  A    between atoms: CBA_3629  and  CGA_3630 
DOCKED: REMARK    4  A    between atoms: C3B_3635  and  CAB_3638 
DOCKED: REMARK    5  A    between atoms: C3C_3642  and  CAC_3645 
DOCKED: REMARK    6  A    between atoms: C3D_3649  and  CAD_3652 
DOCKED: REMARK    7  A    between atoms: CAD_3652  and  CBD_3653 
DOCKED: REMARK    8  A    between atoms: CBD_3653  and  CGD_3654 
DOCKED: USER                              x       y       z     vdW  Elec       q    Type
DOCKED: USER                           _______ _______ _______ _____ _____    ______ ____
DOCKED: ROOT
DOCKED: ATOM      1  CHA HEM A1501      54.200  81.177  10.257 -0.28 +0.04    +0.038 A 
DOCKED: ATOM      2  CHB HEM A1501      54.570  77.257   7.493 -0.38 +0.03    +0.038 A 
DOCKED: ATOM      3  CHC HEM A1501      55.424  74.554  11.398 -0.40 +0.01    +0.038 A 
DOCKED: ATOM      4  CHD HEM A1501      55.120  78.490  14.160 -0.38 +0.02    +0.038 A 
DOCKED: ATOM      5  C1A HEM A1501      54.253  80.346   9.143 -0.26 +0.08    +0.079 A 
DOCKED: ATOM      6  C2A HEM A1501      54.092  80.745   7.741 -0.35 -0.01    -0.006 A 
DOCKED: ATOM      7  C3A HEM A1501      54.195  79.648   7.005 -0.36 -0.01    -0.007 A 
DOCKED: ATOM      8  C4A HEM A1501      54.429  78.566   7.912 -0.32 +0.06    +0.079 A 
DOCKED: ATOM      9  CMA HEM A1501      54.111  79.541   5.513 -0.48 +0.03    +0.032 C 
DOCKED: ATOM     10  C1B HEM A1501      54.805  76.164   8.306 -0.36 +0.04    +0.079 A 
DOCKED: ATOM     11  C2B HEM A1501      54.927  74.796   7.816 -0.47 -0.00    -0.003 A 
DOCKED: ATOM     12  C3B HEM A1501      55.152  74.038   8.921 -0.45 +0.01    +0.015 A 
DOCKED: ATOM     13  C4B HEM A1501      55.191  74.942  10.067 -0.36 +0.03    +0.083 A 
DOCKED: ATOM     14  CMB HEM A1501      54.809  74.386   6.374 -0.58 +0.02    +0.033 C 
DOCKED: ATOM     15  C1C HEM A1501      55.459  75.344  12.515 -0.33 +0.03    +0.079 A 
DOCKED: ATOM     16  C2C HEM A1501      55.787  74.896  13.840 -0.41 -0.00    -0.003 A 
DOCKED: ATOM     17  C3C HEM A1501      55.724  75.994  14.638 -0.39 +0.01    +0.015 A 
DOCKED: ATOM     18  C4C HEM A1501      55.342  77.126  13.772 -0.32 +0.04    +0.083 A 
DOCKED: ATOM     19  CMC HEM A1501      56.123  73.459  14.182 -0.55 +0.01    +0.033 C 
DOCKED: ATOM     20  C1D HEM A1501      54.778  79.599  13.346 -0.32 +0.05    +0.079 A 
DOCKED: ATOM     21  C2D HEM A1501      54.580  80.935  13.819 -0.38 -0.00    -0.007 A 
DOCKED: ATOM     22  C3D HEM A1501      54.320  81.695  12.725 -0.33 -0.00    -0.006 A 
DOCKED: ATOM     23  C4D HEM A1501      54.366  80.817  11.572 -0.23 +0.07    +0.079 A 
DOCKED: ATOM     24  CMD HEM A1501      54.649  81.395  15.221 -0.47 +0.01    +0.032 C 
DOCKED: ATOM     25  NA  HEM A1501      54.491  78.998   9.203 -0.18 -0.20    -0.246 N 
DOCKED: ATOM     26  NB  HEM A1501      54.956  76.212   9.672 -0.02 -0.12    -0.246 N 
DOCKED: ATOM     27  NC  HEM A1501      55.226  76.680  12.519 -0.14 -0.11    -0.246 N 
DOCKED: ATOM     28  ND  HEM A1501      54.650  79.553  11.986 -0.12 -0.18    -0.246 N 
DOCKED: ATOM     29 FE   HEM A1501      54.841  77.866  10.866 -0.07 +0.00    +0.000 Fe
DOCKED: ENDROOT
DOCKED: BRANCH  22  30
DOCKED: ATOM     30  CAD HEM A1501      54.049  83.151  12.771 -0.41 +0.04    +0.039 C 
DOCKED: BRANCH  30  31
DOCKED: ATOM     31  CBD HEM A1501      52.559  83.460  12.624 -0.50 +0.12    +0.102 C 
DOCKED: BRANCH  31  32
DOCKED: ATOM     32  CGD HEM A1501      52.134  84.704  13.381 -0.50 +0.25    +0.186 C 
DOCKED: ATOM     33  O1D HEM A1501      50.930  84.675  13.717 -0.41 -0.82    -0.647 OA
DOCKED: ATOM     34  O2D HEM A1501      52.967  85.669  13.684 -0.50 -1.15    -0.647 OA
DOCKED: ENDBRANCH  31  32
DOCKED: ENDBRANCH  30  31
DOCKED: ENDBRANCH  22  30
DOCKED: BRANCH   6  35
DOCKED: ATOM     35  CAA HEM A1501      53.861  82.113   7.201 -0.44 +0.06    +0.039 C 
DOCKED: BRANCH  35  36
DOCKED: ATOM     36  CBA HEM A1501      52.405  82.334   6.837 -0.57 +0.16    +0.102 C 
DOCKED: BRANCH  36  37
DOCKED: ATOM     37  CGA HEM A1501      52.118  83.674   6.218 -0.63 +0.35    +0.186 C 
DOCKED: ATOM     38  O1A HEM A1501      51.088  83.796   5.516 -1.03 -1.34    -0.647 OA
DOCKED: ATOM     39  O2A HEM A1501      52.893  84.621   6.467 -1.14 -1.72    -0.647 OA
DOCKED: ENDBRANCH  36  37
DOCKED: ENDBRANCH  35  36
DOCKED: ENDBRANCH   6  35
DOCKED: BRANCH  17  40
DOCKED: ATOM     40  CAC HEM A1501      55.969  76.084  16.082 -0.56 +0.00    +0.001 C 
DOCKED: ATOM     41  CBC HEM A1501      55.076  75.880  17.063 -0.64 +0.00    +0.000 C 
DOCKED: ENDBRANCH  17  40
DOCKED: BRANCH  12  42
DOCKED: ATOM     42  CAB HEM A1501      55.346  72.578   9.078 -0.55 +0.00    +0.001 C 
DOCKED: ATOM     43  CBB HEM A1501      55.934  71.893  10.039 -0.57 +0.00    +0.000 C 
DOCKED: ENDBRANCH  12  42
DOCKED: TORSDOF 8
DOCKED: TER
DOCKED: ENDMDL
________________________________________________________________________________


	BEGINNING GENETIC ALGORITHM DOCKING 51 of 100
Run: 51 Seed: 1837826988 1935013335 [ Run 51 of 100 GA/GALS ]
Beginning LAMARCKIAN GENETIC ALGORITHM (LGA), with a maximum of 2500000 energy evaluations.

Final-Value: -23.368


	FINAL GENETIC ALGORITHM DOCKED STATE
	_______________________________________________


Detailed state:  trans 54.896 79.077 10.749 quatxyzw -0.184269 0.970161 -0.155139 -0.027656 center 54.495 78.699 10.493 ntor 8 147.1531 -78.0939 -144.9173 154.7562 -8.5743 18.3584 -169.1615 160.8294
State:	 54.896  79.077  10.749  -0.184  0.971 -0.155 -176.830    147.15  -78.09 -144.92  154.76   -8.57   18.36 -169.16  160.83

DOCKED: MODEL       51
DOCKED: USER    Run = 51
DOCKED: USER    DPF = C:/Users/georg/Desktop/Dock/executables_autodock_tools/receptor.dpf
DOCKED: USER  
DOCKED: USER    Estimated Free Energy of Binding    =  -20.37 kcal/mol  [=(1)+(2)+(3)-(4)]
DOCKED: USER    Estimated Inhibition Constant, Ki   =    1.18 fM (femtomolar)  [Temperature = 298.15 K]
DOCKED: USER    
DOCKED: USER    (1) Final Intermolecular Energy     =  -22.75 kcal/mol
DOCKED: USER        vdW + Hbond + desolv Energy     =  -18.56 kcal/mol
DOCKED: USER        Electrostatic Energy            =   -4.19 kcal/mol
DOCKED: USER    (2) Final Total Internal Energy     =   -0.61 kcal/mol
DOCKED: USER    (3) Torsional Free Energy           =   +2.39 kcal/mol
DOCKED: USER    (4) Unbound System's Energy  [=(2)] =   -0.61 kcal/mol
DOCKED: USER    
DOCKED: USER    
DOCKED: USER    NEWDPF move ligand.pdbqt
DOCKED: USER    NEWDPF about 54.495000 78.699000 10.493000
DOCKED: USER    NEWDPF tran0 54.895516 79.077096 10.749113
DOCKED: USER    NEWDPF quaternion0 -0.184269 0.970161 -0.155139 -0.027656
DOCKED: USER    NEWDPF axisangle0 -0.184340 0.970532 -0.155198 -176.830452
DOCKED: USER    NEWDPF quat0 -0.184340 0.970532 -0.155198 -176.830452
DOCKED: USER    NEWDPF dihe0 147.15 -78.09 -144.92 154.76 -8.57 18.36 -169.16 160.83 
DOCKED: USER  keepresnum = 1 
DOCKED: USER  
DOCKED: REMARK  8 active torsions:
DOCKED: REMARK  status: ('A' for Active; 'I' for Inactive)
DOCKED: REMARK    1  A    between atoms: C2A_3624  and  CAA_3628 
DOCKED: REMARK    2  A    between atoms: CAA_3628  and  CBA_3629 
DOCKED: REMARK    3  A    between atoms: CBA_3629  and  CGA_3630 
DOCKED: REMARK    4  A    between atoms: C3B_3635  and  CAB_3638 
DOCKED: REMARK    5  A    between atoms: C3C_3642  and  CAC_3645 
DOCKED: REMARK    6  A    between atoms: C3D_3649  and  CAD_3652 
DOCKED: REMARK    7  A    between atoms: CAD_3652  and  CBD_3653 
DOCKED: REMARK    8  A    between atoms: CBD_3653  and  CGD_3654 
DOCKED: USER                              x       y       z     vdW  Elec       q    Type
DOCKED: USER                           _______ _______ _______ _____ _____    ______ ____
DOCKED: ROOT
DOCKED: ATOM      1  CHA HEM A1501      54.098  81.283  10.415 -0.28 +0.04    +0.038 A 
DOCKED: ATOM      2  CHB HEM A1501      54.663  77.474   7.531 -0.36 +0.03    +0.038 A 
DOCKED: ATOM      3  CHC HEM A1501      55.522  74.670  11.362 -0.40 +0.01    +0.038 A 
DOCKED: ATOM      4  CHD HEM A1501      55.022  78.497  14.245 -0.39 +0.02    +0.038 A 
DOCKED: ATOM      5  C1A HEM A1501      54.204  80.493   9.274 -0.26 +0.08    +0.079 A 
DOCKED: ATOM      6  C2A HEM A1501      54.061  80.934   7.883 -0.35 -0.01    -0.006 A 
DOCKED: ATOM      7  C3A HEM A1501      54.218  79.867   7.114 -0.35 -0.01    -0.007 A 
DOCKED: ATOM      8  C4A HEM A1501      54.468  78.763   7.989 -0.31 +0.06    +0.079 A 
DOCKED: ATOM      9  CMA HEM A1501      54.171  79.808   5.617 -0.48 +0.03    +0.032 C 
DOCKED: ATOM     10  C1B HEM A1501      54.917  76.362   8.312 -0.33 +0.05    +0.079 A 
DOCKED: ATOM     11  C2B HEM A1501      55.097  75.017   7.780 -0.46 -0.00    -0.003 A 
DOCKED: ATOM     12  C3B HEM A1501      55.322  74.230   8.864 -0.44 +0.01    +0.015 A 
DOCKED: ATOM     13  C4B HEM A1501      55.305  75.095  10.039 -0.35 +0.03    +0.083 A 
DOCKED: ATOM     14  CMB HEM A1501      55.025  74.653   6.322 -0.58 +0.02    +0.033 C 
DOCKED: ATOM     15  C1C HEM A1501      55.505  75.422  12.505 -0.33 +0.03    +0.079 A 
DOCKED: ATOM     16  C2C HEM A1501      55.818  74.940  13.822 -0.41 -0.00    -0.003 A 
DOCKED: ATOM     17  C3C HEM A1501      55.700  76.007  14.654 -0.39 +0.01    +0.015 A 
DOCKED: ATOM     18  C4C HEM A1501      55.299  77.155  13.817 -0.32 +0.03    +0.083 A 
DOCKED: ATOM     19  CMC HEM A1501      56.195  73.504  14.124 -0.55 +0.01    +0.033 C 
DOCKED: ATOM     20  C1D HEM A1501      54.661  79.620  13.462 -0.34 +0.05    +0.079 A 
DOCKED: ATOM     21  C2D HEM A1501      54.407  80.933  13.974 -0.41 -0.00    -0.007 A 
DOCKED: ATOM     22  C3D HEM A1501      54.145  81.720  12.900 -0.36 -0.00    -0.006 A 
DOCKED: ATOM     23  C4D HEM A1501      54.247  80.884  11.720 -0.24 +0.07    +0.079 A 
DOCKED: ATOM     24  CMD HEM A1501      54.429  81.346  15.392 -0.46 +0.01    +0.032 C 
DOCKED: ATOM     25  NA  HEM A1501      54.486  79.153   9.296 -0.17 -0.20    -0.246 N 
DOCKED: ATOM     26  NB  HEM A1501      55.036  76.369   9.681 -0.03 -0.12    -0.246 N 
DOCKED: ATOM     27  NC  HEM A1501      55.226  76.748  12.548 -0.14 -0.11    -0.246 N 
DOCKED: ATOM     28  ND  HEM A1501      54.565  79.617  12.098 -0.13 -0.18    -0.246 N 
DOCKED: ATOM     29 FE   HEM A1501      54.838  77.977  10.928 -0.07 +0.00    +0.000 Fe
DOCKED: ENDROOT
DOCKED: BRANCH  22  30
DOCKED: ATOM     30  CAD HEM A1501      53.824  83.164  12.989 -0.44 +0.04    +0.039 C 
DOCKED: BRANCH  30  31
DOCKED: ATOM     31  CBD HEM A1501      52.338  83.403  13.259 -0.51 +0.11    +0.102 C 
DOCKED: BRANCH  31  32
DOCKED: ATOM     32  CGD HEM A1501      52.009  84.863  13.511 -0.50 +0.26    +0.186 C 
DOCKED: ATOM     33  O1D HEM A1501      53.022  85.596  13.484 -0.42 -1.21    -0.647 OA
DOCKED: ATOM     34  O2D HEM A1501      50.784  85.294  13.685 -0.95 -0.90    -0.647 OA
DOCKED: ENDBRANCH  31  32
DOCKED: ENDBRANCH  30  31
DOCKED: ENDBRANCH  22  30
DOCKED: BRANCH   6  35
DOCKED: ATOM     35  CAA HEM A1501      53.795  82.311   7.384 -0.43 +0.06    +0.039 C 
DOCKED: BRANCH  35  36
DOCKED: ATOM     36  CBA HEM A1501      52.337  82.502   7.013 -0.57 +0.16    +0.102 C 
DOCKED: BRANCH  36  37
DOCKED: ATOM     37  CGA HEM A1501      52.062  83.734   6.195 -0.64 +0.36    +0.186 C 
DOCKED: ATOM     38  O1A HEM A1501      52.868  84.690   6.271 -1.07 -1.70    -0.647 OA
DOCKED: ATOM     39  O2A HEM A1501      51.069  83.734   5.439 -1.06 -1.33    -0.647 OA
DOCKED: ENDBRANCH  36  37
DOCKED: ENDBRANCH  35  36
DOCKED: ENDBRANCH   6  35
DOCKED: BRANCH  17  40
DOCKED: ATOM     40  CAC HEM A1501      55.910  76.057  16.106 -0.56 +0.00    +0.001 C 
DOCKED: ATOM     41  CBC HEM A1501      54.975  75.913  17.058 -0.63 +0.00    +0.000 C 
DOCKED: ENDBRANCH  17  40
DOCKED: BRANCH  12  42
DOCKED: ATOM     42  CAB HEM A1501      55.563  72.773   8.977 -0.52 +0.00    +0.001 C 
DOCKED: ATOM     43  CBB HEM A1501      54.752  71.798   9.337 -0.56 +0.00    +0.000 C 
DOCKED: ENDBRANCH  12  42
DOCKED: TORSDOF 8
DOCKED: TER
DOCKED: ENDMDL
________________________________________________________________________________


	BEGINNING GENETIC ALGORITHM DOCKING 52 of 100
Run: 52 Seed: 1505465875 1009970263 [ Run 52 of 100 GA/GALS ]
Beginning LAMARCKIAN GENETIC ALGORITHM (LGA), with a maximum of 2500000 energy evaluations.

Final-Value: -23.166


	FINAL GENETIC ALGORITHM DOCKED STATE
	_______________________________________________


Detailed state:  trans 54.942 78.807 10.710 quatxyzw -0.172723 0.976295 -0.130434 -0.001427 center 54.495 78.699 10.493 ntor 8 117.4743 -111.8287 72.9721 -19.3958 17.0211 17.6364 -180.0000 147.9251
State:	 54.942  78.807  10.710  -0.173  0.976 -0.130 -179.837    117.47 -111.83   72.97  -19.40   17.02   17.64 -180.00  147.93

DOCKED: MODEL       52
DOCKED: USER    Run = 52
DOCKED: USER    DPF = C:/Users/georg/Desktop/Dock/executables_autodock_tools/receptor.dpf
DOCKED: USER  
DOCKED: USER    Estimated Free Energy of Binding    =  -20.24 kcal/mol  [=(1)+(2)+(3)-(4)]
DOCKED: USER    Estimated Inhibition Constant, Ki   =    1.46 fM (femtomolar)  [Temperature = 298.15 K]
DOCKED: USER    
DOCKED: USER    (1) Final Intermolecular Energy     =  -22.62 kcal/mol
DOCKED: USER        vdW + Hbond + desolv Energy     =  -18.18 kcal/mol
DOCKED: USER        Electrostatic Energy            =   -4.44 kcal/mol
DOCKED: USER    (2) Final Total Internal Energy     =   -0.54 kcal/mol
DOCKED: USER    (3) Torsional Free Energy           =   +2.39 kcal/mol
DOCKED: USER    (4) Unbound System's Energy  [=(2)] =   -0.54 kcal/mol
DOCKED: USER    
DOCKED: USER    
DOCKED: USER    NEWDPF move ligand.pdbqt
DOCKED: USER    NEWDPF about 54.495000 78.699000 10.493000
DOCKED: USER    NEWDPF tran0 54.942011 78.807212 10.710050
DOCKED: USER    NEWDPF quaternion0 -0.172723 0.976295 -0.130434 -0.001427
DOCKED: USER    NEWDPF axisangle0 -0.172724 0.976296 -0.130434 -179.836530
DOCKED: USER    NEWDPF quat0 -0.172724 0.976296 -0.130434 -179.836530
DOCKED: USER    NEWDPF dihe0 117.47 -111.83 72.97 -19.40 17.02 17.64 -180.00 147.93 
DOCKED: USER  keepresnum = 1 
DOCKED: USER  
DOCKED: REMARK  8 active torsions:
DOCKED: REMARK  status: ('A' for Active; 'I' for Inactive)
DOCKED: REMARK    1  A    between atoms: C2A_3624  and  CAA_3628 
DOCKED: REMARK    2  A    between atoms: CAA_3628  and  CBA_3629 
DOCKED: REMARK    3  A    between atoms: CBA_3629  and  CGA_3630 
DOCKED: REMARK    4  A    between atoms: C3B_3635  and  CAB_3638 
DOCKED: REMARK    5  A    between atoms: C3C_3642  and  CAC_3645 
DOCKED: REMARK    6  A    between atoms: C3D_3649  and  CAD_3652 
DOCKED: REMARK    7  A    between atoms: CAD_3652  and  CBD_3653 
DOCKED: REMARK    8  A    between atoms: CBD_3653  and  CGD_3654 
DOCKED: USER                              x       y       z     vdW  Elec       q    Type
DOCKED: USER                           _______ _______ _______ _____ _____    ______ ____
DOCKED: ROOT
DOCKED: ATOM      1  CHA HEM A1501      54.200  81.048  10.510 -0.26 +0.04    +0.038 A 
DOCKED: ATOM      2  CHB HEM A1501      54.477  77.348   7.449 -0.39 +0.03    +0.038 A 
DOCKED: ATOM      3  CHC HEM A1501      55.458  74.361  11.109 -0.41 +0.01    +0.038 A 
DOCKED: ATOM      4  CHD HEM A1501      55.245  78.078  14.167 -0.38 +0.02    +0.038 A 
DOCKED: ATOM      5  C1A HEM A1501      54.215  80.304   9.335 -0.25 +0.08    +0.079 A 
DOCKED: ATOM      6  C2A HEM A1501      54.009  80.807   7.973 -0.35 -0.01    -0.006 A 
DOCKED: ATOM      7  C3A HEM A1501      54.087  79.768   7.154 -0.36 -0.01    -0.007 A 
DOCKED: ATOM      8  C4A HEM A1501      54.351  78.621   7.969 -0.33 +0.06    +0.079 A 
DOCKED: ATOM      9  CMA HEM A1501      53.955  79.773   5.662 -0.46 +0.03    +0.032 C 
DOCKED: ATOM     10  C1B HEM A1501      54.739  76.197   8.169 -0.36 +0.05    +0.079 A 
DOCKED: ATOM     11  C2B HEM A1501      54.844  74.870   7.574 -0.48 -0.00    -0.003 A 
DOCKED: ATOM     12  C3B HEM A1501      55.104  74.032   8.611 -0.45 +0.01    +0.015 A 
DOCKED: ATOM     13  C4B HEM A1501      55.182  74.848   9.820 -0.37 +0.03    +0.083 A 
DOCKED: ATOM     14  CMB HEM A1501      54.679  74.570   6.110 -0.59 +0.02    +0.033 C 
DOCKED: ATOM     15  C1C HEM A1501      55.530  75.065  12.281 -0.35 +0.03    +0.079 A 
DOCKED: ATOM     16  C2C HEM A1501      55.900  74.520  13.558 -0.43 -0.00    -0.003 A 
DOCKED: ATOM     17  C3C HEM A1501      55.864  75.554  14.437 -0.39 +0.01    +0.015 A 
DOCKED: ATOM     18  C4C HEM A1501      55.454  76.747  13.671 -0.31 +0.03    +0.083 A 
DOCKED: ATOM     19  CMC HEM A1501      56.246  73.062  13.779 -0.54 +0.01    +0.033 C 
DOCKED: ATOM     20  C1D HEM A1501      54.878  79.244  13.451 -0.32 +0.04    +0.079 A 
DOCKED: ATOM     21  C2D HEM A1501      54.695  80.541  14.030 -0.40 -0.00    -0.007 A 
DOCKED: ATOM     22  C3D HEM A1501      54.400  81.380  13.004 -0.34 -0.00    -0.006 A 
DOCKED: ATOM     23  C4D HEM A1501      54.409  80.591  11.788 -0.22 +0.06    +0.079 A 
DOCKED: ATOM     24  CMD HEM A1501      54.810  80.894  15.459 -0.36 +0.01    +0.032 C 
DOCKED: ATOM     25  NA  HEM A1501      54.455  78.956   9.287 -0.17 -0.20    -0.246 N 
DOCKED: ATOM     26  NB  HEM A1501      54.934  76.143   9.529 -0.11 -0.12    -0.246 N 
DOCKED: ATOM     27  NC  HEM A1501      55.297  76.397  12.393 -0.15 -0.11    -0.246 N 
DOCKED: ATOM     28  ND  HEM A1501      54.705  79.300  12.097 -0.12 -0.17    -0.246 N 
DOCKED: ATOM     29 FE   HEM A1501      54.859  77.703  10.847 -0.07 +0.00    +0.000 Fe
DOCKED: ENDROOT
DOCKED: BRANCH  22  30
DOCKED: ATOM     30  CAD HEM A1501      54.131  82.828  13.169 -0.39 +0.04    +0.039 C 
DOCKED: BRANCH  30  31
DOCKED: ATOM     31  CBD HEM A1501      52.635  83.123  13.269 -0.51 +0.10    +0.102 C 
DOCKED: BRANCH  31  32
DOCKED: ATOM     32  CGD HEM A1501      52.296  84.574  12.978 -0.48 +0.26    +0.186 C 
DOCKED: ATOM     33  O1D HEM A1501      51.360  85.001  13.689 -0.43 -0.88    -0.647 OA
DOCKED: ATOM     34  O2D HEM A1501      52.959  85.296  12.109 -0.55 -1.46    -0.647 OA
DOCKED: ENDBRANCH  31  32
DOCKED: ENDBRANCH  30  31
DOCKED: ENDBRANCH  22  30
DOCKED: BRANCH   6  35
DOCKED: ATOM     35  CAA HEM A1501      53.761  82.211   7.546 -0.42 +0.06    +0.039 C 
DOCKED: BRANCH  35  36
DOCKED: ATOM     36  CBA HEM A1501      52.369  82.384   6.970 -0.57 +0.16    +0.102 C 
DOCKED: BRANCH  36  37
DOCKED: ATOM     37  CGA HEM A1501      52.161  83.677   6.229 -0.64 +0.35    +0.186 C 
DOCKED: ATOM     38  O1A HEM A1501      51.192  83.761   5.440 -1.06 -1.31    -0.647 OA
DOCKED: ATOM     39  O2A HEM A1501      52.936  84.626   6.466 -1.15 -1.73    -0.647 OA
DOCKED: ENDBRANCH  36  37
DOCKED: ENDBRANCH  35  36
DOCKED: ENDBRANCH   6  35
DOCKED: BRANCH  17  40
DOCKED: ATOM     40  CAC HEM A1501      56.156  75.537  15.875 -0.55 +0.00    +0.001 C 
DOCKED: ATOM     41  CBC HEM A1501      55.340  75.929  16.866 -0.64 +0.00    +0.000 C 
DOCKED: ENDBRANCH  17  40
DOCKED: BRANCH  12  42
DOCKED: ATOM     42  CAB HEM A1501      55.303  72.565   8.652 -0.54 +0.00    +0.001 C 
DOCKED: ATOM     43  CBB HEM A1501      54.828  71.661   9.485 -0.55 +0.00    +0.000 C 
DOCKED: ENDBRANCH  12  42
DOCKED: TORSDOF 8
DOCKED: TER
DOCKED: ENDMDL
________________________________________________________________________________


	BEGINNING GENETIC ALGORITHM DOCKING 53 of 100
Run: 53 Seed: 1273828925 1945169394 [ Run 53 of 100 GA/GALS ]
Beginning LAMARCKIAN GENETIC ALGORITHM (LGA), with a maximum of 2500000 energy evaluations.

Final-Value: -23.197


	FINAL GENETIC ALGORITHM DOCKED STATE
	_______________________________________________


Detailed state:  trans 54.348 78.709 10.651 quatxyzw 0.012171 -0.002874 0.015079 -0.999808 center 54.495 78.699 10.493 ntor 8 13.2379 -19.5840 27.9832 180.0000 3.3370 24.3545 -20.9277 19.4690
State:	 54.348  78.709  10.651   0.621 -0.147  0.770 -2.245     13.24  -19.58   27.98  180.00    3.34   24.35  -20.93   19.47

DOCKED: MODEL       53
DOCKED: USER    Run = 53
DOCKED: USER    DPF = C:/Users/georg/Desktop/Dock/executables_autodock_tools/receptor.dpf
DOCKED: USER  
DOCKED: USER    Estimated Free Energy of Binding    =  -20.33 kcal/mol  [=(1)+(2)+(3)-(4)]
DOCKED: USER    Estimated Inhibition Constant, Ki   =    1.25 fM (femtomolar)  [Temperature = 298.15 K]
DOCKED: USER    
DOCKED: USER    (1) Final Intermolecular Energy     =  -22.72 kcal/mol
DOCKED: USER        vdW + Hbond + desolv Energy     =  -18.58 kcal/mol
DOCKED: USER        Electrostatic Energy            =   -4.14 kcal/mol
DOCKED: USER    (2) Final Total Internal Energy     =   -0.48 kcal/mol
DOCKED: USER    (3) Torsional Free Energy           =   +2.39 kcal/mol
DOCKED: USER    (4) Unbound System's Energy  [=(2)] =   -0.48 kcal/mol
DOCKED: USER    
DOCKED: USER    
DOCKED: USER    NEWDPF move ligand.pdbqt
DOCKED: USER    NEWDPF about 54.495000 78.699000 10.493000
DOCKED: USER    NEWDPF tran0 54.347905 78.708885 10.650817
DOCKED: USER    NEWDPF quaternion0 0.012171 -0.002874 0.015079 -0.999808
DOCKED: USER    NEWDPF axisangle0 0.621289 -0.146696 0.769727 -2.245009
DOCKED: USER    NEWDPF quat0 0.621289 -0.146696 0.769727 -2.245009
DOCKED: USER    NEWDPF dihe0 13.24 -19.58 27.98 180.00 3.34 24.35 -20.93 19.47 
DOCKED: USER  keepresnum = 1 
DOCKED: USER  
DOCKED: REMARK  8 active torsions:
DOCKED: REMARK  status: ('A' for Active; 'I' for Inactive)
DOCKED: REMARK    1  A    between atoms: C2A_3624  and  CAA_3628 
DOCKED: REMARK    2  A    between atoms: CAA_3628  and  CBA_3629 
DOCKED: REMARK    3  A    between atoms: CBA_3629  and  CGA_3630 
DOCKED: REMARK    4  A    between atoms: C3B_3635  and  CAB_3638 
DOCKED: REMARK    5  A    between atoms: C3C_3642  and  CAC_3645 
DOCKED: REMARK    6  A    between atoms: C3D_3649  and  CAD_3652 
DOCKED: REMARK    7  A    between atoms: CAD_3652  and  CBD_3653 
DOCKED: REMARK    8  A    between atoms: CBD_3653  and  CGD_3654 
DOCKED: USER                              x       y       z     vdW  Elec       q    Type
DOCKED: USER                           _______ _______ _______ _____ _____    ______ ____
DOCKED: ROOT
DOCKED: ATOM      1  CHA HEM A1501      54.213  81.047  10.295 -0.26 +0.04    +0.038 A 
DOCKED: ATOM      2  CHB HEM A1501      55.131  78.314  14.145 -0.39 +0.02    +0.038 A 
DOCKED: ATOM      3  CHC HEM A1501      55.506  74.419  11.321 -0.40 +0.01    +0.038 A 
DOCKED: ATOM      4  CHD HEM A1501      54.521  77.145   7.473 -0.39 +0.03    +0.038 A 
DOCKED: ATOM      5  C1A HEM A1501      54.404  80.641  11.612 -0.22 +0.07    +0.079 A 
DOCKED: ATOM      6  C2A HEM A1501      54.338  81.483  12.810 -0.33 -0.00    -0.006 A 
DOCKED: ATOM      7  C3A HEM A1501      54.597  80.706  13.852 -0.39 -0.00    -0.007 A 
DOCKED: ATOM      8  C4A HEM A1501      54.814  79.388  13.338 -0.32 +0.05    +0.079 A 
DOCKED: ATOM      9  CMA HEM A1501      54.637  81.103  15.296 -0.44 +0.01    +0.032 C 
DOCKED: ATOM     10  C1B HEM A1501      55.346  77.014  13.724 -0.32 +0.03    +0.079 A 
DOCKED: ATOM     11  C2B HEM A1501      55.697  75.916  14.616 -0.39 -0.00    -0.003 A 
DOCKED: ATOM     12  C3B HEM A1501      55.817  74.827  13.814 -0.41 +0.01    +0.015 A 
DOCKED: ATOM     13  C4B HEM A1501      55.515  75.256  12.451 -0.34 +0.03    +0.083 A 
DOCKED: ATOM     14  CMB HEM A1501      55.879  76.043  16.104 -0.54 +0.01    +0.033 C 
DOCKED: ATOM     15  C1C HEM A1501      55.248  74.758  10.021 -0.38 +0.03    +0.079 A 
DOCKED: ATOM     16  C2C HEM A1501      55.172  73.837   8.921 -0.47 -0.00    -0.003 A 
DOCKED: ATOM     17  C3C HEM A1501      54.879  74.580   7.823 -0.46 +0.01    +0.015 A 
DOCKED: ATOM     18  C4C HEM A1501      54.784  75.983   8.274 -0.36 +0.05    +0.083 A 
DOCKED: ATOM     19  CMC HEM A1501      55.393  72.344   9.058 -0.53 +0.01    +0.033 C 
DOCKED: ATOM     20  C1D HEM A1501      54.400  78.495   7.883 -0.33 +0.06    +0.079 A 
DOCKED: ATOM     21  C2D HEM A1501      54.130  79.598   7.011 -0.37 -0.01    -0.007 A 
DOCKED: ATOM     22  C3D HEM A1501      54.043  80.699   7.801 -0.35 -0.01    -0.006 A 
DOCKED: ATOM     23  C4D HEM A1501      54.255  80.264   9.168 -0.26 +0.08    +0.079 A 
DOCKED: ATOM     24  CMD HEM A1501      53.974  79.546   5.544 -0.46 +0.03    +0.032 C 
DOCKED: ATOM     25  NA  HEM A1501      54.669  79.349  11.983 -0.11 -0.17    -0.246 N 
DOCKED: ATOM     26  NB  HEM A1501      55.259  76.581  12.422 -0.13 -0.11    -0.246 N 
DOCKED: ATOM     27  NC  HEM A1501      54.987  76.018   9.592 -0.14 -0.12    -0.246 N 
DOCKED: ATOM     28  ND  HEM A1501      54.466  78.921   9.180 -0.18 -0.20    -0.246 N 
DOCKED: ATOM     29 FE   HEM A1501      54.834  77.712  10.773 -0.07 +0.00    +0.000 Fe
DOCKED: ENDROOT
DOCKED: BRANCH  22  30
DOCKED: ATOM     30  CAD HEM A1501      53.776  82.066   7.293 -0.45 +0.06    +0.039 C 
DOCKED: BRANCH  30  31
DOCKED: ATOM     31  CBD HEM A1501      52.398  82.173   6.641 -0.57 +0.15    +0.102 C 
DOCKED: BRANCH  31  32
DOCKED: ATOM     32  CGD HEM A1501      52.151  83.525   5.998 -0.63 +0.34    +0.186 C 
DOCKED: ATOM     33  O1D HEM A1501      51.101  83.550   5.319 -1.07 -1.29    -0.647 OA
DOCKED: ATOM     34  O2D HEM A1501      52.938  84.555   6.188 -1.20 -1.59    -0.647 OA
DOCKED: ENDBRANCH  31  32
DOCKED: ENDBRANCH  30  31
DOCKED: ENDBRANCH  22  30
DOCKED: BRANCH   6  35
DOCKED: ATOM     35  CAA HEM A1501      54.035  82.938  12.888 -0.41 +0.04    +0.039 C 
DOCKED: BRANCH  35  36
DOCKED: ATOM     36  CBA HEM A1501      52.775  83.206  13.688 -0.47 +0.10    +0.102 C 
DOCKED: BRANCH  36  37
DOCKED: ATOM     37  CGA HEM A1501      52.143  84.544  13.419 -0.51 +0.24    +0.186 C 
DOCKED: ATOM     38  O1A HEM A1501      52.677  85.294  12.569 -0.62 -1.30    -0.647 OA
DOCKED: ATOM     39  O2A HEM A1501      51.088  84.833  14.020 -0.46 -0.83    -0.647 OA
DOCKED: ENDBRANCH  36  37
DOCKED: ENDBRANCH  35  36
DOCKED: ENDBRANCH   6  35
DOCKED: BRANCH  17  40
DOCKED: ATOM     40  CAC HEM A1501      54.693  74.127   6.439 -0.60 +0.00    +0.001 C 
DOCKED: ATOM     41  CBC HEM A1501      53.689  74.460   5.613 -0.66 +0.00    +0.000 C 
DOCKED: ENDBRANCH  17  40
DOCKED: BRANCH  12  42
DOCKED: ATOM     42  CAB HEM A1501      56.168  73.422  14.125 -0.58 +0.00    +0.001 C 
DOCKED: ATOM     43  CBB HEM A1501      57.102  72.928  14.912 -0.64 +0.00    +0.000 C 
DOCKED: ENDBRANCH  12  42
DOCKED: TORSDOF 8
DOCKED: TER
DOCKED: ENDMDL
________________________________________________________________________________


	BEGINNING GENETIC ALGORITHM DOCKING 54 of 100
Run: 54 Seed: 1187566347 2076779120 [ Run 54 of 100 GA/GALS ]
Beginning LAMARCKIAN GENETIC ALGORITHM (LGA), with a maximum of 2500000 energy evaluations.

Final-Value: -23.531


	FINAL GENETIC ALGORITHM DOCKED STATE
	_______________________________________________


Detailed state:  trans 54.927 78.931 10.633 quatxyzw -0.182447 0.971138 -0.152682 -0.017113 center 54.495 78.699 10.493 ntor 8 139.6255 -96.1785 -128.8757 -7.3045 14.2549 9.7827 -160.2984 149.3482
State:	 54.927  78.931  10.633  -0.182  0.971 -0.153 -178.039    139.63  -96.18 -128.88   -7.30   14.25    9.78 -160.30  149.35

DOCKED: MODEL       54
DOCKED: USER    Run = 54
DOCKED: USER    DPF = C:/Users/georg/Desktop/Dock/executables_autodock_tools/receptor.dpf
DOCKED: USER  
DOCKED: USER    Estimated Free Energy of Binding    =  -20.60 kcal/mol  [=(1)+(2)+(3)-(4)]
DOCKED: USER    Estimated Inhibition Constant, Ki   =  800.66 aM (attomolar)  [Temperature = 298.15 K]
DOCKED: USER    
DOCKED: USER    (1) Final Intermolecular Energy     =  -22.98 kcal/mol
DOCKED: USER        vdW + Hbond + desolv Energy     =  -18.71 kcal/mol
DOCKED: USER        Electrostatic Energy            =   -4.28 kcal/mol
DOCKED: USER    (2) Final Total Internal Energy     =   -0.55 kcal/mol
DOCKED: USER    (3) Torsional Free Energy           =   +2.39 kcal/mol
DOCKED: USER    (4) Unbound System's Energy  [=(2)] =   -0.55 kcal/mol
DOCKED: USER    
DOCKED: USER    
DOCKED: USER    NEWDPF move ligand.pdbqt
DOCKED: USER    NEWDPF about 54.495000 78.699000 10.493000
DOCKED: USER    NEWDPF tran0 54.926801 78.930760 10.633142
DOCKED: USER    NEWDPF quaternion0 -0.182447 0.971138 -0.152682 -0.017113
DOCKED: USER    NEWDPF axisangle0 -0.182474 0.971280 -0.152704 -178.038907
DOCKED: USER    NEWDPF quat0 -0.182474 0.971280 -0.152704 -178.038907
DOCKED: USER    NEWDPF dihe0 139.63 -96.18 -128.88 -7.30 14.25 9.78 -160.30 149.35 
DOCKED: USER  keepresnum = 1 
DOCKED: USER  
DOCKED: REMARK  8 active torsions:
DOCKED: REMARK  status: ('A' for Active; 'I' for Inactive)
DOCKED: REMARK    1  A    between atoms: C2A_3624  and  CAA_3628 
DOCKED: REMARK    2  A    between atoms: CAA_3628  and  CBA_3629 
DOCKED: REMARK    3  A    between atoms: CBA_3629  and  CGA_3630 
DOCKED: REMARK    4  A    between atoms: C3B_3635  and  CAB_3638 
DOCKED: REMARK    5  A    between atoms: C3C_3642  and  CAC_3645 
DOCKED: REMARK    6  A    between atoms: C3D_3649  and  CAD_3652 
DOCKED: REMARK    7  A    between atoms: CAD_3652  and  CBD_3653 
DOCKED: REMARK    8  A    between atoms: CBD_3653  and  CGD_3654 
DOCKED: USER                              x       y       z     vdW  Elec       q    Type
DOCKED: USER                           _______ _______ _______ _____ _____    ______ ____
DOCKED: ROOT
DOCKED: ATOM      1  CHA HEM A1501      54.138  81.142  10.318 -0.28 +0.04    +0.038 A 
DOCKED: ATOM      2  CHB HEM A1501      54.616  77.334   7.418 -0.38 +0.03    +0.038 A 
DOCKED: ATOM      3  CHC HEM A1501      55.535  74.518  11.227 -0.40 +0.01    +0.038 A 
DOCKED: ATOM      4  CHD HEM A1501      55.122  78.345  14.125 -0.39 +0.02    +0.038 A 
DOCKED: ATOM      5  C1A HEM A1501      54.215  80.354   9.175 -0.26 +0.08    +0.079 A 
DOCKED: ATOM      6  C2A HEM A1501      54.045  80.798   7.787 -0.35 -0.01    -0.006 A 
DOCKED: ATOM      7  C3A HEM A1501      54.179  79.730   7.014 -0.36 -0.01    -0.007 A 
DOCKED: ATOM      8  C4A HEM A1501      54.440  78.623   7.882 -0.32 +0.06    +0.079 A 
DOCKED: ATOM      9  CMA HEM A1501      54.100  79.674   5.519 -0.48 +0.03    +0.032 C 
DOCKED: ATOM     10  C1B HEM A1501      54.879  76.219   8.193 -0.35 +0.05    +0.079 A 
DOCKED: ATOM     11  C2B HEM A1501      55.037  74.873   7.655 -0.47 -0.00    -0.003 A 
DOCKED: ATOM     12  C3B HEM A1501      55.280  74.083   8.733 -0.44 +0.01    +0.015 A 
DOCKED: ATOM     13  C4B HEM A1501      55.294  74.947   9.910 -0.36 +0.03    +0.083 A 
DOCKED: ATOM     14  CMB HEM A1501      54.932  74.512   6.199 -0.58 +0.02    +0.033 C 
DOCKED: ATOM     15  C1C HEM A1501      55.547  75.269  12.371 -0.34 +0.03    +0.079 A 
DOCKED: ATOM     16  C2C HEM A1501      55.884  74.783  13.681 -0.42 -0.00    -0.003 A 
DOCKED: ATOM     17  C3C HEM A1501      55.791  75.850  14.517 -0.39 +0.01    +0.015 A 
DOCKED: ATOM     18  C4C HEM A1501      55.381  77.001  13.690 -0.31 +0.04    +0.083 A 
DOCKED: ATOM     19  CMC HEM A1501      56.257  73.344  13.973 -0.55 +0.01    +0.033 C 
DOCKED: ATOM     20  C1D HEM A1501      54.753  79.472  13.351 -0.32 +0.05    +0.079 A 
DOCKED: ATOM     21  C2D HEM A1501      54.518  80.785  13.870 -0.40 -0.00    -0.007 A 
DOCKED: ATOM     22  C3D HEM A1501      54.240  81.576  12.802 -0.34 -0.00    -0.006 A 
DOCKED: ATOM     23  C4D HEM A1501      54.312  80.741  11.620 -0.22 +0.07    +0.079 A 
DOCKED: ATOM     24  CMD HEM A1501      54.573  81.197  15.287 -0.46 +0.01    +0.032 C 
DOCKED: ATOM     25  NA  HEM A1501      54.488  79.011   9.189 -0.18 -0.20    -0.246 N 
DOCKED: ATOM     26  NB  HEM A1501      55.026  76.223   9.559 -0.12 -0.12    -0.246 N 
DOCKED: ATOM     27  NC  HEM A1501      55.279  76.597  12.422 -0.14 -0.11    -0.246 N 
DOCKED: ATOM     28  ND  HEM A1501      54.628  79.471  11.990 -0.11 -0.17    -0.246 N 
DOCKED: ATOM     29 FE   HEM A1501      54.865  77.831  10.811 -0.07 +0.00    +0.000 Fe
DOCKED: ENDROOT
DOCKED: BRANCH  22  30
DOCKED: ATOM     30  CAD HEM A1501      53.931  83.022  12.900 -0.42 +0.04    +0.039 C 
DOCKED: BRANCH  30  31
DOCKED: ATOM     31  CBD HEM A1501      52.512  83.270  13.412 -0.50 +0.10    +0.102 C 
DOCKED: BRANCH  31  32
DOCKED: ATOM     32  CGD HEM A1501      52.028  84.685  13.156 -0.48 +0.26    +0.186 C 
DOCKED: ATOM     33  O1D HEM A1501      52.745  85.297  12.335 -0.58 -1.35    -0.647 OA
DOCKED: ATOM     34  O2D HEM A1501      50.945  85.174  13.707 -0.77 -0.89    -0.647 OA
DOCKED: ENDBRANCH  31  32
DOCKED: ENDBRANCH  30  31
DOCKED: ENDBRANCH  22  30
DOCKED: BRANCH   6  35
DOCKED: ATOM     35  CAA HEM A1501      53.779  82.177   7.296 -0.45 +0.06    +0.039 C 
DOCKED: BRANCH  35  36
DOCKED: ATOM     36  CBA HEM A1501      52.392  82.301   6.696 -0.58 +0.16    +0.102 C 
DOCKED: BRANCH  36  37
DOCKED: ATOM     37  CGA HEM A1501      52.110  83.633   6.057 -0.64 +0.35    +0.186 C 
DOCKED: ATOM     38  O1A HEM A1501      51.032  83.778   5.436 -1.05 -1.35    -0.647 OA
DOCKED: ATOM     39  O2A HEM A1501      52.941  84.552   6.211 -1.20 -1.60    -0.647 OA
DOCKED: ENDBRANCH  36  37
DOCKED: ENDBRANCH  35  36
DOCKED: ENDBRANCH   6  35
DOCKED: BRANCH  17  40
DOCKED: ATOM     40  CAC HEM A1501      56.031  75.896  15.964 -0.55 +0.00    +0.001 C 
DOCKED: ATOM     41  CBC HEM A1501      55.103  75.898  16.933 -0.63 +0.00    +0.000 C 
DOCKED: ENDBRANCH  17  40
DOCKED: BRANCH  12  42
DOCKED: ATOM     42  CAB HEM A1501      55.513  72.624   8.839 -0.52 +0.00    +0.001 C 
DOCKED: ATOM     43  CBB HEM A1501      54.843  71.698   9.495 -0.55 +0.00    +0.000 C 
DOCKED: ENDBRANCH  12  42
DOCKED: TORSDOF 8
DOCKED: TER
DOCKED: ENDMDL
________________________________________________________________________________


	BEGINNING GENETIC ALGORITHM DOCKING 55 of 100
Run: 55 Seed: 1998468307 1484525366 [ Run 55 of 100 GA/GALS ]
Beginning LAMARCKIAN GENETIC ALGORITHM (LGA), with a maximum of 2500000 energy evaluations.

Final-Value: -23.386


	FINAL GENETIC ALGORITHM DOCKED STATE
	_______________________________________________


Detailed state:  trans 54.312 78.877 10.631 quatxyzw -0.008146 -0.016388 0.022716 -0.999574 center 54.495 78.699 10.493 ntor 8 4.0170 -25.7635 -175.2275 -24.6830 1.8615 -4.9691 1.3577 9.8047
State:	 54.312  78.877  10.631  -0.279 -0.562  0.779 -3.343      4.02  -25.76 -175.23  -24.68    1.86   -4.97    1.36    9.80

DOCKED: MODEL       55
DOCKED: USER    Run = 55
DOCKED: USER    DPF = C:/Users/georg/Desktop/Dock/executables_autodock_tools/receptor.dpf
DOCKED: USER  
DOCKED: USER    Estimated Free Energy of Binding    =  -20.42 kcal/mol  [=(1)+(2)+(3)-(4)]
DOCKED: USER    Estimated Inhibition Constant, Ki   =    1.08 fM (femtomolar)  [Temperature = 298.15 K]
DOCKED: USER    
DOCKED: USER    (1) Final Intermolecular Energy     =  -22.80 kcal/mol
DOCKED: USER        vdW + Hbond + desolv Energy     =  -18.64 kcal/mol
DOCKED: USER        Electrostatic Energy            =   -4.17 kcal/mol
DOCKED: USER    (2) Final Total Internal Energy     =   -0.58 kcal/mol
DOCKED: USER    (3) Torsional Free Energy           =   +2.39 kcal/mol
DOCKED: USER    (4) Unbound System's Energy  [=(2)] =   -0.58 kcal/mol
DOCKED: USER    
DOCKED: USER    
DOCKED: USER    NEWDPF move ligand.pdbqt
DOCKED: USER    NEWDPF about 54.495000 78.699000 10.493000
DOCKED: USER    NEWDPF tran0 54.312159 78.877045 10.631292
DOCKED: USER    NEWDPF quaternion0 -0.008146 -0.016388 0.022716 -0.999574
DOCKED: USER    NEWDPF axisangle0 -0.279239 -0.561802 0.778719 -3.343252
DOCKED: USER    NEWDPF quat0 -0.279239 -0.561802 0.778719 -3.343252
DOCKED: USER    NEWDPF dihe0 4.02 -25.76 -175.23 -24.68 1.86 -4.97 1.36 9.80 
DOCKED: USER  keepresnum = 1 
DOCKED: USER  
DOCKED: REMARK  8 active torsions:
DOCKED: REMARK  status: ('A' for Active; 'I' for Inactive)
DOCKED: REMARK    1  A    between atoms: C2A_3624  and  CAA_3628 
DOCKED: REMARK    2  A    between atoms: CAA_3628  and  CBA_3629 
DOCKED: REMARK    3  A    between atoms: CBA_3629  and  CGA_3630 
DOCKED: REMARK    4  A    between atoms: C3B_3635  and  CAB_3638 
DOCKED: REMARK    5  A    between atoms: C3C_3642  and  CAC_3645 
DOCKED: REMARK    6  A    between atoms: C3D_3649  and  CAD_3652 
DOCKED: REMARK    7  A    between atoms: CAD_3652  and  CBD_3653 
DOCKED: REMARK    8  A    between atoms: CBD_3653  and  CGD_3654 
DOCKED: USER                              x       y       z     vdW  Elec       q    Type
DOCKED: USER                           _______ _______ _______ _____ _____    ______ ____
DOCKED: ROOT
DOCKED: ATOM      1  CHA HEM A1501      54.154  81.197  10.178 -0.28 +0.04    +0.038 A 
DOCKED: ATOM      2  CHB HEM A1501      55.002  78.634  14.159 -0.39 +0.02    +0.038 A 
DOCKED: ATOM      3  CHC HEM A1501      55.512  74.636  11.507 -0.40 +0.01    +0.038 A 
DOCKED: ATOM      4  CHD HEM A1501      54.597  77.190   7.525 -0.38 +0.03    +0.038 A 
DOCKED: ATOM      5  C1A HEM A1501      54.314  80.846  11.514 -0.22 +0.07    +0.079 A 
DOCKED: ATOM      6  C2A HEM A1501      54.202  81.735  12.676 -0.35 -0.01    -0.006 A 
DOCKED: ATOM      7  C3A HEM A1501      54.443  81.005  13.755 -0.39 -0.00    -0.007 A 
DOCKED: ATOM      8  C4A HEM A1501      54.693  79.671  13.300 -0.32 +0.05    +0.079 A 
DOCKED: ATOM      9  CMA HEM A1501      54.436  81.459  15.182 -0.48 +0.02    +0.032 C 
DOCKED: ATOM     10  C1B HEM A1501      55.247  77.322  13.797 -0.33 +0.03    +0.079 A 
DOCKED: ATOM     11  C2B HEM A1501      55.589  76.267  14.742 -0.41 -0.00    -0.003 A 
DOCKED: ATOM     12  C3B HEM A1501      55.747  75.148  13.988 -0.39 +0.01    +0.015 A 
DOCKED: ATOM     13  C4B HEM A1501      55.478  75.517  12.601 -0.33 +0.03    +0.083 A 
DOCKED: ATOM     14  CMB HEM A1501      55.728  76.455  16.228 -0.54 +0.01    +0.033 C 
DOCKED: ATOM     15  C1C HEM A1501      55.286  74.919  10.187 -0.36 +0.03    +0.079 A 
DOCKED: ATOM     16  C2C HEM A1501      55.254  73.953   9.123 -0.46 -0.00    -0.003 A 
DOCKED: ATOM     17  C3C HEM A1501      54.981  74.647   7.988 -0.45 +0.01    +0.015 A 
DOCKED: ATOM     18  C4C HEM A1501      54.853  76.065   8.379 -0.35 +0.05    +0.083 A 
DOCKED: ATOM     19  CMC HEM A1501      55.492  72.471   9.327 -0.53 +0.01    +0.033 C 
DOCKED: ATOM     20  C1D HEM A1501      54.445  78.554   7.877 -0.32 +0.06    +0.079 A 
DOCKED: ATOM     21  C2D HEM A1501      54.184  79.617   6.954 -0.36 -0.01    -0.007 A 
DOCKED: ATOM     22  C3D HEM A1501      54.059  80.747   7.696 -0.35 -0.01    -0.006 A 
DOCKED: ATOM     23  C4D HEM A1501      54.239  80.370   9.085 -0.26 +0.08    +0.079 A 
DOCKED: ATOM     24  CMD HEM A1501      54.070  79.503   5.486 -0.48 +0.03    +0.032 C 
DOCKED: ATOM     25  NA  HEM A1501      54.586  79.575  11.944 -0.12 -0.18    -0.246 N 
DOCKED: ATOM     26  NB  HEM A1501      55.203  76.836  12.512 -0.13 -0.11    -0.246 N 
DOCKED: ATOM     27  NC  HEM A1501      55.019  76.156   9.700 -0.07 -0.12    -0.246 N 
DOCKED: ATOM     28  ND  HEM A1501      54.468  79.032   9.157 -0.18 -0.20    -0.246 N 
DOCKED: ATOM     29 FE   HEM A1501      54.809  77.893  10.807 -0.07 +0.00    +0.000 Fe
DOCKED: ENDROOT
DOCKED: BRANCH  22  30
DOCKED: ATOM     30  CAD HEM A1501      53.787  82.087   7.126 -0.45 +0.06    +0.039 C 
DOCKED: BRANCH  30  31
DOCKED: ATOM     31  CBD HEM A1501      52.291  82.332   6.930 -0.57 +0.16    +0.102 C 
DOCKED: BRANCH  31  32
DOCKED: ATOM     32  CGD HEM A1501      51.991  83.660   6.261 -0.61 +0.36    +0.186 C 
DOCKED: ATOM     33  O1D HEM A1501      52.826  84.544   6.549 -1.17 -1.68    -0.647 OA
DOCKED: ATOM     34  O2D HEM A1501      50.988  83.826   5.434 -1.02 -1.37    -0.647 OA
DOCKED: ENDBRANCH  31  32
DOCKED: ENDBRANCH  30  31
DOCKED: ENDBRANCH  22  30
DOCKED: BRANCH   6  35
DOCKED: ATOM     35  CAA HEM A1501      53.876  83.187  12.686 -0.43 +0.04    +0.039 C 
DOCKED: BRANCH  35  36
DOCKED: ATOM     36  CBA HEM A1501      52.484  83.445  13.229 -0.53 +0.11    +0.102 C 
DOCKED: BRANCH  36  37
DOCKED: ATOM     37  CGA HEM A1501      52.170  84.897  13.465 -0.48 +0.26    +0.186 C 
DOCKED: ATOM     38  O1A HEM A1501      50.969  85.252  13.473 -0.77 -0.92    -0.647 OA
DOCKED: ATOM     39  O2A HEM A1501      53.117  85.679  13.690 -0.47 -1.14    -0.647 OA
DOCKED: ENDBRANCH  36  37
DOCKED: ENDBRANCH  35  36
DOCKED: ENDBRANCH   6  35
DOCKED: BRANCH  17  40
DOCKED: ATOM     40  CAC HEM A1501      54.841  74.136   6.620 -0.59 +0.00    +0.001 C 
DOCKED: ATOM     41  CBC HEM A1501      53.777  74.279   5.814 -0.66 +0.00    +0.000 C 
DOCKED: ENDBRANCH  17  40
DOCKED: BRANCH  12  42
DOCKED: ATOM     42  CAB HEM A1501      56.109  73.762  14.365 -0.56 +0.00    +0.001 C 
DOCKED: ATOM     43  CBB HEM A1501      57.095  73.309  15.113 -0.61 +0.00    +0.000 C 
DOCKED: ENDBRANCH  12  42
DOCKED: TORSDOF 8
DOCKED: TER
DOCKED: ENDMDL
________________________________________________________________________________


	BEGINNING GENETIC ALGORITHM DOCKING 56 of 100
Run: 56 Seed: 277459362 1951880444 [ Run 56 of 100 GA/GALS ]
Beginning LAMARCKIAN GENETIC ALGORITHM (LGA), with a maximum of 2500000 energy evaluations.

Final-Value: -23.485


	FINAL GENETIC ALGORITHM DOCKED STATE
	_______________________________________________


Detailed state:  trans 54.971 78.872 10.672 quatxyzw 0.169903 -0.975442 0.140109 0.003847 center 54.495 78.699 10.493 ntor 8 122.1999 -110.2308 -110.7033 149.8204 10.9865 24.7557 179.3263 159.5290
State:	 54.971  78.872  10.672   0.170 -0.975  0.140 179.559    122.20 -110.23 -110.70  149.82   10.99   24.76  179.33  159.53

DOCKED: MODEL       56
DOCKED: USER    Run = 56
DOCKED: USER    DPF = C:/Users/georg/Desktop/Dock/executables_autodock_tools/receptor.dpf
DOCKED: USER  
DOCKED: USER    Estimated Free Energy of Binding    =  -20.51 kcal/mol  [=(1)+(2)+(3)-(4)]
DOCKED: USER    Estimated Inhibition Constant, Ki   =  923.59 aM (attomolar)  [Temperature = 298.15 K]
DOCKED: USER    
DOCKED: USER    (1) Final Intermolecular Energy     =  -22.90 kcal/mol
DOCKED: USER        vdW + Hbond + desolv Energy     =  -18.47 kcal/mol
DOCKED: USER        Electrostatic Energy            =   -4.42 kcal/mol
DOCKED: USER    (2) Final Total Internal Energy     =   -0.59 kcal/mol
DOCKED: USER    (3) Torsional Free Energy           =   +2.39 kcal/mol
DOCKED: USER    (4) Unbound System's Energy  [=(2)] =   -0.59 kcal/mol
DOCKED: USER    
DOCKED: USER    
DOCKED: USER    NEWDPF move ligand.pdbqt
DOCKED: USER    NEWDPF about 54.495000 78.699000 10.493000
DOCKED: USER    NEWDPF tran0 54.971013 78.871546 10.672178
DOCKED: USER    NEWDPF quaternion0 0.169903 -0.975442 0.140109 0.003847
DOCKED: USER    NEWDPF axisangle0 0.169904 -0.975450 0.140110 179.559209
DOCKED: USER    NEWDPF quat0 0.169904 -0.975450 0.140110 179.559209
DOCKED: USER    NEWDPF dihe0 122.20 -110.23 -110.70 149.82 10.99 24.76 179.33 159.53 
DOCKED: USER  keepresnum = 1 
DOCKED: USER  
DOCKED: REMARK  8 active torsions:
DOCKED: REMARK  status: ('A' for Active; 'I' for Inactive)
DOCKED: REMARK    1  A    between atoms: C2A_3624  and  CAA_3628 
DOCKED: REMARK    2  A    between atoms: CAA_3628  and  CBA_3629 
DOCKED: REMARK    3  A    between atoms: CBA_3629  and  CGA_3630 
DOCKED: REMARK    4  A    between atoms: C3B_3635  and  CAB_3638 
DOCKED: REMARK    5  A    between atoms: C3C_3642  and  CAC_3645 
DOCKED: REMARK    6  A    between atoms: C3D_3649  and  CAD_3652 
DOCKED: REMARK    7  A    between atoms: CAD_3652  and  CBD_3653 
DOCKED: REMARK    8  A    between atoms: CBD_3653  and  CGD_3654 
DOCKED: USER                              x       y       z     vdW  Elec       q    Type
DOCKED: USER                           _______ _______ _______ _____ _____    ______ ____
DOCKED: ROOT
DOCKED: ATOM      1  CHA HEM A1501      54.241  81.112  10.425 -0.27 +0.04    +0.038 A 
DOCKED: ATOM      2  CHB HEM A1501      54.528  77.355   7.434 -0.39 +0.03    +0.038 A 
DOCKED: ATOM      3  CHC HEM A1501      55.462  74.431  11.157 -0.41 +0.01    +0.038 A 
DOCKED: ATOM      4  CHD HEM A1501      55.241  78.205  14.145 -0.38 +0.02    +0.038 A 
DOCKED: ATOM      5  C1A HEM A1501      54.263  80.346   9.264 -0.25 +0.08    +0.079 A 
DOCKED: ATOM      6  C2A HEM A1501      54.071  80.825   7.891 -0.35 -0.01    -0.006 A 
DOCKED: ATOM      7  C3A HEM A1501      54.152  79.771   7.092 -0.36 -0.01    -0.007 A 
DOCKED: ATOM      8  C4A HEM A1501      54.403  78.638   7.930 -0.32 +0.06    +0.079 A 
DOCKED: ATOM      9  CMA HEM A1501      54.032  79.749   5.598 -0.47 +0.03    +0.032 C 
DOCKED: ATOM     10  C1B HEM A1501      54.778  76.216   8.178 -0.36 +0.05    +0.079 A 
DOCKED: ATOM     11  C2B HEM A1501      54.882  74.878   7.608 -0.47 -0.00    -0.003 A 
DOCKED: ATOM     12  C3B HEM A1501      55.129  74.058   8.662 -0.45 +0.01    +0.015 A 
DOCKED: ATOM     13  C4B HEM A1501      55.200  74.895   9.856 -0.37 +0.03    +0.083 A 
DOCKED: ATOM     14  CMB HEM A1501      54.728  74.552   6.148 -0.59 +0.02    +0.033 C 
DOCKED: ATOM     15  C1C HEM A1501      55.527  75.157  12.316 -0.34 +0.03    +0.079 A 
DOCKED: ATOM     16  C2C HEM A1501      55.884  74.633  13.606 -0.43 -0.00    -0.003 A 
DOCKED: ATOM     17  C3C HEM A1501      55.845  75.683  14.466 -0.39 +0.01    +0.015 A 
DOCKED: ATOM     18  C4C HEM A1501      55.448  76.864  13.675 -0.31 +0.03    +0.083 A 
DOCKED: ATOM     19  CMC HEM A1501      56.222  73.177  13.857 -0.54 +0.01    +0.033 C 
DOCKED: ATOM     20  C1D HEM A1501      54.885  79.359  13.404 -0.32 +0.04    +0.079 A 
DOCKED: ATOM     21  C2D HEM A1501      54.703  80.666  13.957 -0.39 -0.00    -0.007 A 
DOCKED: ATOM     22  C3D HEM A1501      54.421  81.488  12.914 -0.33 -0.00    -0.006 A 
DOCKED: ATOM     23  C4D HEM A1501      54.437  80.677  11.713 -0.23 +0.07    +0.079 A 
DOCKED: ATOM     24  CMD HEM A1501      54.807  81.046  15.381 -0.43 +0.01    +0.032 C 
DOCKED: ATOM     25  NA  HEM A1501      54.497  78.996   9.242 -0.17 -0.20    -0.246 N 
DOCKED: ATOM     26  NB  HEM A1501      54.961  76.186   9.540 -0.10 -0.12    -0.246 N 
DOCKED: ATOM     27  NC  HEM A1501      55.300  76.490  12.402 -0.15 -0.11    -0.246 N 
DOCKED: ATOM     28  ND  HEM A1501      54.724  79.391  12.047 -0.12 -0.17    -0.246 N 
DOCKED: ATOM     29 FE   HEM A1501      54.881  77.770  10.829 -0.07 +0.00    +0.000 Fe
DOCKED: ENDROOT
DOCKED: BRANCH  22  30
DOCKED: ATOM     30  CAD HEM A1501      54.157  82.940  13.050 -0.39 +0.04    +0.039 C 
DOCKED: BRANCH  30  31
DOCKED: ATOM     31  CBD HEM A1501      52.661  83.246  13.115 -0.51 +0.11    +0.102 C 
DOCKED: BRANCH  31  32
DOCKED: ATOM     32  CGD HEM A1501      52.349  84.720  12.938 -0.45 +0.28    +0.186 C 
DOCKED: ATOM     33  O1D HEM A1501      53.157  85.294  12.175 -0.58 -1.48    -0.647 OA
DOCKED: ATOM     34  O2D HEM A1501      51.312  85.297  13.492 -0.67 -0.96    -0.647 OA
DOCKED: ENDBRANCH  31  32
DOCKED: ENDBRANCH  30  31
DOCKED: ENDBRANCH  22  30
DOCKED: BRANCH   6  35
DOCKED: ATOM     35  CAA HEM A1501      53.833  82.222   7.436 -0.43 +0.06    +0.039 C 
DOCKED: BRANCH  35  36
DOCKED: ATOM     36  CBA HEM A1501      52.373  82.464   7.109 -0.56 +0.16    +0.102 C 
DOCKED: BRANCH  36  37
DOCKED: ATOM     37  CGA HEM A1501      52.127  83.640   6.204 -0.63 +0.35    +0.186 C 
DOCKED: ATOM     38  O1A HEM A1501      52.936  84.596   6.239 -1.17 -1.64    -0.647 OA
DOCKED: ATOM     39  O2A HEM A1501      51.154  83.595   5.424 -1.06 -1.30    -0.647 OA
DOCKED: ENDBRANCH  36  37
DOCKED: ENDBRANCH  35  36
DOCKED: ENDBRANCH   6  35
DOCKED: BRANCH  17  40
DOCKED: ATOM     40  CAC HEM A1501      56.124  75.691  15.907 -0.55 +0.00    +0.001 C 
DOCKED: ATOM     41  CBC HEM A1501      55.272  76.021  16.889 -0.63 +0.00    +0.000 C 
DOCKED: ENDBRANCH  17  40
DOCKED: BRANCH  12  42
DOCKED: ATOM     42  CAB HEM A1501      55.321  72.591   8.732 -0.54 +0.00    +0.001 C 
DOCKED: ATOM     43  CBB HEM A1501      54.812  71.701   9.560 -0.54 +0.00    +0.000 C 
DOCKED: ENDBRANCH  12  42
DOCKED: TORSDOF 8
DOCKED: TER
DOCKED: ENDMDL
________________________________________________________________________________


	BEGINNING GENETIC ALGORITHM DOCKING 57 of 100
Run: 57 Seed: 1815377127 459472216 [ Run 57 of 100 GA/GALS ]
Beginning LAMARCKIAN GENETIC ALGORITHM (LGA), with a maximum of 2500000 energy evaluations.

Final-Value: -23.298


	FINAL GENETIC ALGORITHM DOCKED STATE
	_______________________________________________


Detailed state:  trans 54.965 78.936 10.618 quatxyzw 0.177989 -0.968745 0.170642 0.027101 center 54.495 78.699 10.493 ntor 8 -180.0000 -84.7485 -144.6207 167.7258 22.6688 -3.7894 -142.1227 152.0272
State:	 54.965  78.936  10.618   0.178 -0.969  0.171 176.894   -180.00  -84.75 -144.62  167.73   22.67   -3.79 -142.12  152.03

DOCKED: MODEL       57
DOCKED: USER    Run = 57
DOCKED: USER    DPF = C:/Users/georg/Desktop/Dock/executables_autodock_tools/receptor.dpf
DOCKED: USER  
DOCKED: USER    Estimated Free Energy of Binding    =  -20.46 kcal/mol  [=(1)+(2)+(3)-(4)]
DOCKED: USER    Estimated Inhibition Constant, Ki   =    1.01 fM (femtomolar)  [Temperature = 298.15 K]
DOCKED: USER    
DOCKED: USER    (1) Final Intermolecular Energy     =  -22.84 kcal/mol
DOCKED: USER        vdW + Hbond + desolv Energy     =  -18.54 kcal/mol
DOCKED: USER        Electrostatic Energy            =   -4.30 kcal/mol
DOCKED: USER    (2) Final Total Internal Energy     =   -0.46 kcal/mol
DOCKED: USER    (3) Torsional Free Energy           =   +2.39 kcal/mol
DOCKED: USER    (4) Unbound System's Energy  [=(2)] =   -0.46 kcal/mol
DOCKED: USER    
DOCKED: USER    
DOCKED: USER    NEWDPF move ligand.pdbqt
DOCKED: USER    NEWDPF about 54.495000 78.699000 10.493000
DOCKED: USER    NEWDPF tran0 54.965107 78.936169 10.617607
DOCKED: USER    NEWDPF quaternion0 0.177989 -0.968745 0.170642 0.027101
DOCKED: USER    NEWDPF axisangle0 0.178054 -0.969101 0.170705 176.894072
DOCKED: USER    NEWDPF quat0 0.178054 -0.969101 0.170705 176.894072
DOCKED: USER    NEWDPF dihe0 -180.00 -84.75 -144.62 167.73 22.67 -3.79 -142.12 152.03 
DOCKED: USER  keepresnum = 1 
DOCKED: USER  
DOCKED: REMARK  8 active torsions:
DOCKED: REMARK  status: ('A' for Active; 'I' for Inactive)
DOCKED: REMARK    1  A    between atoms: C2A_3624  and  CAA_3628 
DOCKED: REMARK    2  A    between atoms: CAA_3628  and  CBA_3629 
DOCKED: REMARK    3  A    between atoms: CBA_3629  and  CGA_3630 
DOCKED: REMARK    4  A    between atoms: C3B_3635  and  CAB_3638 
DOCKED: REMARK    5  A    between atoms: C3C_3642  and  CAC_3645 
DOCKED: REMARK    6  A    between atoms: C3D_3649  and  CAD_3652 
DOCKED: REMARK    7  A    between atoms: CAD_3652  and  CBD_3653 
DOCKED: REMARK    8  A    between atoms: CBD_3653  and  CGD_3654 
DOCKED: USER                              x       y       z     vdW  Elec       q    Type
DOCKED: USER                           _______ _______ _______ _____ _____    ______ ____
DOCKED: ROOT
DOCKED: ATOM      1  CHA HEM A1501      54.198  81.141  10.211 -0.28 +0.04    +0.038 A 
DOCKED: ATOM      2  CHB HEM A1501      54.733  77.239   7.448 -0.36 +0.03    +0.038 A 
DOCKED: ATOM      3  CHC HEM A1501      55.531  74.542  11.368 -0.40 +0.01    +0.038 A 
DOCKED: ATOM      4  CHD HEM A1501      55.061  78.461  14.131 -0.39 +0.02    +0.038 A 
DOCKED: ATOM      5  C1A HEM A1501      54.301  80.315   9.096 -0.26 +0.08    +0.079 A 
DOCKED: ATOM      6  C2A HEM A1501      54.172  80.716   7.691 -0.34 -0.01    -0.006 A 
DOCKED: ATOM      7  C3A HEM A1501      54.321  79.623   6.955 -0.35 -0.01    -0.007 A 
DOCKED: ATOM      8  C4A HEM A1501      54.552  78.543   7.866 -0.31 +0.06    +0.079 A 
DOCKED: ATOM      9  CMA HEM A1501      54.283  79.520   5.461 -0.49 +0.03    +0.032 C 
DOCKED: ATOM     10  C1B HEM A1501      54.968  76.148   8.264 -0.34 +0.04    +0.079 A 
DOCKED: ATOM     11  C2B HEM A1501      55.133  74.785   7.774 -0.46 -0.00    -0.003 A 
DOCKED: ATOM     12  C3B HEM A1501      55.342  74.029   8.883 -0.44 +0.01    +0.015 A 
DOCKED: ATOM     13  C4B HEM A1501      55.329  74.930  10.032 -0.36 +0.03    +0.083 A 
DOCKED: ATOM     14  CMB HEM A1501      55.066  74.378   6.328 -0.58 +0.02    +0.033 C 
DOCKED: ATOM     15  C1C HEM A1501      55.517  75.329  12.488 -0.34 +0.03    +0.079 A 
DOCKED: ATOM     16  C2C HEM A1501      55.815  74.883  13.821 -0.41 -0.00    -0.003 A 
DOCKED: ATOM     17  C3C HEM A1501      55.705  75.976  14.619 -0.39 +0.01    +0.015 A 
DOCKED: ATOM     18  C4C HEM A1501      55.324  77.103  13.745 -0.32 +0.04    +0.083 A 
DOCKED: ATOM     19  CMC HEM A1501      56.171  73.452  14.168 -0.55 +0.01    +0.033 C 
DOCKED: ATOM     20  C1D HEM A1501      54.720  79.565  13.311 -0.32 +0.05    +0.079 A 
DOCKED: ATOM     21  C2D HEM A1501      54.479  80.895  13.782 -0.39 -0.00    -0.007 A 
DOCKED: ATOM     22  C3D HEM A1501      54.235  81.653  12.682 -0.34 -0.01    -0.006 A 
DOCKED: ATOM     23  C4D HEM A1501      54.334  80.780  11.529 -0.22 +0.07    +0.079 A 
DOCKED: ATOM     24  CMD HEM A1501      54.497  81.351  15.186 -0.47 +0.02    +0.032 C 
DOCKED: ATOM     25  NA  HEM A1501      54.566  78.973   9.160 -0.18 -0.20    -0.246 N 
DOCKED: ATOM     26  NB  HEM A1501      55.078  76.195   9.634 -0.12 -0.12    -0.246 N 
DOCKED: ATOM     27  NC  HEM A1501      55.255  76.659  12.489 -0.14 -0.11    -0.246 N 
DOCKED: ATOM     28  ND  HEM A1501      54.632  79.521  11.948 -0.12 -0.18    -0.246 N 
DOCKED: ATOM     29 FE   HEM A1501      54.892  77.843  10.829 -0.07 +0.00    +0.000 Fe
DOCKED: ENDROOT
DOCKED: BRANCH  22  30
DOCKED: ATOM     30  CAD HEM A1501      53.931  83.103  12.725 -0.42 +0.04    +0.039 C 
DOCKED: BRANCH  30  31
DOCKED: ATOM     31  CBD HEM A1501      52.705  83.405  13.587 -0.49 +0.10    +0.102 C 
DOCKED: BRANCH  31  32
DOCKED: ATOM     32  CGD HEM A1501      52.016  84.701  13.204 -0.49 +0.26    +0.186 C 
DOCKED: ATOM     33  O1D HEM A1501      52.597  85.297  12.270 -0.55 -1.32    -0.647 OA
DOCKED: ATOM     34  O2D HEM A1501      50.906  85.107  13.768 -0.72 -0.87    -0.647 OA
DOCKED: ENDBRANCH  31  32
DOCKED: ENDBRANCH  30  31
DOCKED: ENDBRANCH  22  30
DOCKED: BRANCH   6  35
DOCKED: ATOM     35  CAA HEM A1501      53.928  82.080   7.149 -0.43 +0.05    +0.039 C 
DOCKED: BRANCH  35  36
DOCKED: ATOM     36  CBA HEM A1501      52.534  82.210   6.566 -0.57 +0.15    +0.102 C 
DOCKED: BRANCH  36  37
DOCKED: ATOM     37  CGA HEM A1501      52.157  83.611   6.168 -0.64 +0.35    +0.186 C 
DOCKED: ATOM     38  O1A HEM A1501      52.899  84.552   6.533 -1.18 -1.70    -0.647 OA
DOCKED: ATOM     39  O2A HEM A1501      51.148  83.773   5.453 -1.06 -1.32    -0.647 OA
DOCKED: ENDBRANCH  36  37
DOCKED: ENDBRANCH  35  36
DOCKED: ENDBRANCH   6  35
DOCKED: BRANCH  17  40
DOCKED: ATOM     40  CAC HEM A1501      55.906  76.067  16.070 -0.56 +0.00    +0.001 C 
DOCKED: ATOM     41  CBC HEM A1501      55.218  75.413  17.019 -0.63 +0.00    +0.000 C 
DOCKED: ENDBRANCH  17  40
DOCKED: BRANCH  12  42
DOCKED: ATOM     42  CAB HEM A1501      55.563  72.573   9.042 -0.53 +0.00    +0.001 C 
DOCKED: ATOM     43  CBB HEM A1501      54.776  71.638   9.535 -0.53 +0.00    +0.000 C 
DOCKED: ENDBRANCH  12  42
DOCKED: TORSDOF 8
DOCKED: TER
DOCKED: ENDMDL
________________________________________________________________________________


	BEGINNING GENETIC ALGORITHM DOCKING 58 of 100
Run: 58 Seed: 382753981 1760955124 [ Run 58 of 100 GA/GALS ]
Beginning LAMARCKIAN GENETIC ALGORITHM (LGA), with a maximum of 2500000 energy evaluations.

Final-Value: -23.432


	FINAL GENETIC ALGORITHM DOCKED STATE
	_______________________________________________


Detailed state:  trans 54.945 78.881 10.687 quatxyzw 0.162830 -0.973302 0.161679 0.005418 center 54.495 78.699 10.493 ntor 8 167.4771 172.8595 -136.1455 -29.9975 21.5770 10.9816 -160.1125 158.6245
State:	 54.945  78.881  10.687   0.163 -0.973  0.162 179.379    167.48  172.86 -136.15  -30.00   21.58   10.98 -160.11  158.62

DOCKED: MODEL       58
DOCKED: USER    Run = 58
DOCKED: USER    DPF = C:/Users/georg/Desktop/Dock/executables_autodock_tools/receptor.dpf
DOCKED: USER  
DOCKED: USER    Estimated Free Energy of Binding    =  -20.58 kcal/mol  [=(1)+(2)+(3)-(4)]
DOCKED: USER    Estimated Inhibition Constant, Ki   =  824.13 aM (attomolar)  [Temperature = 298.15 K]
DOCKED: USER    
DOCKED: USER    (1) Final Intermolecular Energy     =  -22.96 kcal/mol
DOCKED: USER        vdW + Hbond + desolv Energy     =  -18.46 kcal/mol
DOCKED: USER        Electrostatic Energy            =   -4.50 kcal/mol
DOCKED: USER    (2) Final Total Internal Energy     =   -0.47 kcal/mol
DOCKED: USER    (3) Torsional Free Energy           =   +2.39 kcal/mol
DOCKED: USER    (4) Unbound System's Energy  [=(2)] =   -0.47 kcal/mol
DOCKED: USER    
DOCKED: USER    
DOCKED: USER    NEWDPF move ligand.pdbqt
DOCKED: USER    NEWDPF about 54.495000 78.699000 10.493000
DOCKED: USER    NEWDPF tran0 54.944902 78.880854 10.687106
DOCKED: USER    NEWDPF quaternion0 0.162830 -0.973302 0.161679 0.005418
DOCKED: USER    NEWDPF axisangle0 0.162832 -0.973316 0.161681 179.379168
DOCKED: USER    NEWDPF quat0 0.162832 -0.973316 0.161681 179.379168
DOCKED: USER    NEWDPF dihe0 167.48 172.86 -136.15 -30.00 21.58 10.98 -160.11 158.62 
DOCKED: USER  keepresnum = 1 
DOCKED: USER  
DOCKED: REMARK  8 active torsions:
DOCKED: REMARK  status: ('A' for Active; 'I' for Inactive)
DOCKED: REMARK    1  A    between atoms: C2A_3624  and  CAA_3628 
DOCKED: REMARK    2  A    between atoms: CAA_3628  and  CBA_3629 
DOCKED: REMARK    3  A    between atoms: CBA_3629  and  CGA_3630 
DOCKED: REMARK    4  A    between atoms: C3B_3635  and  CAB_3638 
DOCKED: REMARK    5  A    between atoms: C3C_3642  and  CAC_3645 
DOCKED: REMARK    6  A    between atoms: C3D_3649  and  CAD_3652 
DOCKED: REMARK    7  A    between atoms: CAD_3652  and  CBD_3653 
DOCKED: REMARK    8  A    between atoms: CBD_3653  and  CGD_3654 
DOCKED: USER                              x       y       z     vdW  Elec       q    Type
DOCKED: USER                           _______ _______ _______ _____ _____    ______ ____
DOCKED: ROOT
DOCKED: ATOM      1  CHA HEM A1501      54.247  81.118  10.337 -0.27 +0.04    +0.038 A 
DOCKED: ATOM      2  CHB HEM A1501      54.521  77.235   7.510 -0.39 +0.03    +0.038 A 
DOCKED: ATOM      3  CHC HEM A1501      55.372  74.459  11.364 -0.40 +0.01    +0.038 A 
DOCKED: ATOM      4  CHD HEM A1501      55.164  78.358  14.188 -0.38 +0.02    +0.038 A 
DOCKED: ATOM      5  C1A HEM A1501      54.274  80.303   9.209 -0.25 +0.08    +0.079 A 
DOCKED: ATOM      6  C2A HEM A1501      54.104  80.726   7.815 -0.35 -0.01    -0.006 A 
DOCKED: ATOM      7  C3A HEM A1501      54.181  79.639   7.062 -0.36 -0.01    -0.007 A 
DOCKED: ATOM      8  C4A HEM A1501      54.407  78.539   7.950 -0.32 +0.06    +0.079 A 
DOCKED: ATOM      9  CMA HEM A1501      54.079  79.555   5.569 -0.48 +0.03    +0.032 C 
DOCKED: ATOM     10  C1B HEM A1501      54.747  76.125   8.304 -0.36 +0.05    +0.079 A 
DOCKED: ATOM     11  C2B HEM A1501      54.841  74.763   7.793 -0.47 -0.00    -0.003 A 
DOCKED: ATOM     12  C3B HEM A1501      55.065  73.985   8.883 -0.45 +0.01    +0.015 A 
DOCKED: ATOM     13  C4B HEM A1501      55.132  74.871  10.042 -0.36 +0.03    +0.083 A 
DOCKED: ATOM     14  CMB HEM A1501      54.700  74.378   6.346 -0.58 +0.02    +0.033 C 
DOCKED: ATOM     15  C1C HEM A1501      55.433  75.232  12.492 -0.34 +0.03    +0.079 A 
DOCKED: ATOM     16  C2C HEM A1501      55.767  74.758  13.808 -0.41 -0.00    -0.003 A 
DOCKED: ATOM     17  C3C HEM A1501      55.731  75.844  14.622 -0.38 +0.01    +0.015 A 
DOCKED: ATOM     18  C4C HEM A1501      55.359  76.996  13.777 -0.32 +0.03    +0.083 A 
DOCKED: ATOM     19  CMC HEM A1501      56.082  73.311  14.124 -0.56 +0.01    +0.033 C 
DOCKED: ATOM     20  C1D HEM A1501      54.832  79.484  13.395 -0.32 +0.05    +0.079 A 
DOCKED: ATOM     21  C2D HEM A1501      54.661  80.816  13.890 -0.38 -0.00    -0.007 A 
DOCKED: ATOM     22  C3D HEM A1501      54.402  81.597  12.810 -0.32 -0.00    -0.006 A 
DOCKED: ATOM     23  C4D HEM A1501      54.421  80.735  11.644 -0.23 +0.07    +0.079 A 
DOCKED: ATOM     24  CMD HEM A1501      54.753  81.253  15.298 -0.47 +0.01    +0.032 C 
DOCKED: ATOM     25  NA  HEM A1501      54.490  78.951   9.247 -0.17 -0.20    -0.246 N 
DOCKED: ATOM     26  NB  HEM A1501      54.914  76.150   9.668 -0.02 -0.12    -0.246 N 
DOCKED: ATOM     27  NC  HEM A1501      55.222  76.571  12.519 -0.15 -0.11    -0.246 N 
DOCKED: ATOM     28  ND  HEM A1501      54.688  79.461  12.036 -0.12 -0.17    -0.246 N 
DOCKED: ATOM     29 FE   HEM A1501      54.839  77.788  10.889 -0.07 +0.00    +0.000 Fe
DOCKED: ENDROOT
DOCKED: BRANCH  22  30
DOCKED: ATOM     30  CAD HEM A1501      54.156  83.056  12.881 -0.39 +0.04    +0.039 C 
DOCKED: BRANCH  30  31
DOCKED: ATOM     31  CBD HEM A1501      52.758  83.374  13.411 -0.50 +0.11    +0.102 C 
DOCKED: BRANCH  31  32
DOCKED: ATOM     32  CGD HEM A1501      52.258  84.741  12.982 -0.45 +0.27    +0.186 C 
DOCKED: ATOM     33  O1D HEM A1501      53.021  85.296  12.160 -0.58 -1.46    -0.647 OA
DOCKED: ATOM     34  O2D HEM A1501      51.123  85.245  13.400 -0.70 -0.94    -0.647 OA
DOCKED: ENDBRANCH  31  32
DOCKED: ENDBRANCH  30  31
DOCKED: ENDBRANCH  22  30
DOCKED: BRANCH   6  35
DOCKED: ATOM     35  CAA HEM A1501      53.890  82.106   7.299 -0.43 +0.06    +0.039 C 
DOCKED: BRANCH  35  36
DOCKED: ATOM     36  CBA HEM A1501      52.441  82.345   6.923 -0.56 +0.16    +0.102 C 
DOCKED: BRANCH  36  37
DOCKED: ATOM     37  CGA HEM A1501      52.187  83.662   6.241 -0.64 +0.35    +0.186 C 
DOCKED: ATOM     38  O1A HEM A1501      51.232  83.739   5.434 -1.06 -1.29    -0.647 OA
DOCKED: ATOM     39  O2A HEM A1501      52.910  84.634   6.541 -1.13 -1.76    -0.647 OA
DOCKED: ENDBRANCH  36  37
DOCKED: ENDBRANCH  35  36
DOCKED: ENDBRANCH   6  35
DOCKED: BRANCH  17  40
DOCKED: ATOM     40  CAC HEM A1501      55.993  75.909  16.065 -0.56 +0.00    +0.001 C 
DOCKED: ATOM     41  CBC HEM A1501      55.194  75.467  17.047 -0.64 +0.00    +0.000 C 
DOCKED: ENDBRANCH  17  40
DOCKED: BRANCH  12  42
DOCKED: ATOM     42  CAB HEM A1501      55.236  72.520   9.017 -0.56 +0.00    +0.001 C 
DOCKED: ATOM     43  CBB HEM A1501      55.945  71.818   9.878 -0.56 +0.00    +0.000 C 
DOCKED: ENDBRANCH  12  42
DOCKED: TORSDOF 8
DOCKED: TER
DOCKED: ENDMDL
________________________________________________________________________________


	BEGINNING GENETIC ALGORITHM DOCKING 59 of 100
Run: 59 Seed: 1368021155 1492357629 [ Run 59 of 100 GA/GALS ]
Beginning LAMARCKIAN GENETIC ALGORITHM (LGA), with a maximum of 2500000 energy evaluations.

Final-Value: -23.351


	FINAL GENETIC ALGORITHM DOCKED STATE
	_______________________________________________


Detailed state:  trans 54.941 79.054 10.858 quatxyzw 0.192533 -0.962532 0.187802 0.034542 center 54.495 78.699 10.493 ntor 8 170.4196 -41.6605 -144.2124 138.6556 -22.2783 11.4335 -169.2245 170.1423
State:	 54.941  79.054  10.858   0.193 -0.963  0.188 176.041    170.42  -41.66 -144.21  138.66  -22.28   11.43 -169.22  170.14

DOCKED: MODEL       59
DOCKED: USER    Run = 59
DOCKED: USER    DPF = C:/Users/georg/Desktop/Dock/executables_autodock_tools/receptor.dpf
DOCKED: USER  
DOCKED: USER    Estimated Free Energy of Binding    =  -20.36 kcal/mol  [=(1)+(2)+(3)-(4)]
DOCKED: USER    Estimated Inhibition Constant, Ki   =    1.18 fM (femtomolar)  [Temperature = 298.15 K]
DOCKED: USER    
DOCKED: USER    (1) Final Intermolecular Energy     =  -22.75 kcal/mol
DOCKED: USER        vdW + Hbond + desolv Energy     =  -18.70 kcal/mol
DOCKED: USER        Electrostatic Energy            =   -4.05 kcal/mol
DOCKED: USER    (2) Final Total Internal Energy     =   -0.60 kcal/mol
DOCKED: USER    (3) Torsional Free Energy           =   +2.39 kcal/mol
DOCKED: USER    (4) Unbound System's Energy  [=(2)] =   -0.60 kcal/mol
DOCKED: USER    
DOCKED: USER    
DOCKED: USER    NEWDPF move ligand.pdbqt
DOCKED: USER    NEWDPF about 54.495000 78.699000 10.493000
DOCKED: USER    NEWDPF tran0 54.941202 79.053923 10.857991
DOCKED: USER    NEWDPF quaternion0 0.192533 -0.962532 0.187802 0.034542
DOCKED: USER    NEWDPF axisangle0 0.192648 -0.963107 0.187914 176.040979
DOCKED: USER    NEWDPF quat0 0.192648 -0.963107 0.187914 176.040979
DOCKED: USER    NEWDPF dihe0 170.42 -41.66 -144.21 138.66 -22.28 11.43 -169.22 170.14 
DOCKED: USER  keepresnum = 1 
DOCKED: USER  
DOCKED: REMARK  8 active torsions:
DOCKED: REMARK  status: ('A' for Active; 'I' for Inactive)
DOCKED: REMARK    1  A    between atoms: C2A_3624  and  CAA_3628 
DOCKED: REMARK    2  A    between atoms: CAA_3628  and  CBA_3629 
DOCKED: REMARK    3  A    between atoms: CBA_3629  and  CGA_3630 
DOCKED: REMARK    4  A    between atoms: C3B_3635  and  CAB_3638 
DOCKED: REMARK    5  A    between atoms: C3C_3642  and  CAC_3645 
DOCKED: REMARK    6  A    between atoms: C3D_3649  and  CAD_3652 
DOCKED: REMARK    7  A    between atoms: CAD_3652  and  CBD_3653 
DOCKED: REMARK    8  A    between atoms: CBD_3653  and  CGD_3654 
DOCKED: USER                              x       y       z     vdW  Elec       q    Type
DOCKED: USER                           _______ _______ _______ _____ _____    ______ ____
DOCKED: ROOT
DOCKED: ATOM      1  CHA HEM A1501      54.112  81.218  10.365 -0.28 +0.04    +0.038 A 
DOCKED: ATOM      2  CHB HEM A1501      54.815  77.246   7.744 -0.34 +0.03    +0.038 A 
DOCKED: ATOM      3  CHC HEM A1501      55.634  74.708  11.765 -0.39 +0.01    +0.038 A 
DOCKED: ATOM      4  CHD HEM A1501      54.995  78.699  14.386 -0.39 +0.02    +0.038 A 
DOCKED: ATOM      5  C1A HEM A1501      54.259  80.360   9.281 -0.25 +0.08    +0.079 A 
DOCKED: ATOM      6  C2A HEM A1501      54.141  80.709   7.861 -0.34 -0.01    -0.006 A 
DOCKED: ATOM      7  C3A HEM A1501      54.336  79.598   7.165 -0.35 -0.01    -0.007 A 
DOCKED: ATOM      8  C4A HEM A1501      54.586  78.557   8.115 -0.30 +0.06    +0.079 A 
DOCKED: ATOM      9  CMA HEM A1501      54.326  79.443   5.675 -0.47 +0.03    +0.032 C 
DOCKED: ATOM     10  C1B HEM A1501      55.071  76.191   8.600 -0.31 +0.04    +0.079 A 
DOCKED: ATOM     11  C2B HEM A1501      55.288  74.819   8.159 -0.44 -0.00    -0.003 A 
DOCKED: ATOM     12  C3B HEM A1501      55.502  74.106   9.296 -0.44 +0.01    +0.015 A 
DOCKED: ATOM     13  C4B HEM A1501      55.441  75.044  10.413 -0.35 +0.03    +0.083 A 
DOCKED: ATOM     14  CMB HEM A1501      55.257  74.362   6.727 -0.56 +0.02    +0.033 C 
DOCKED: ATOM     15  C1C HEM A1501      55.576  75.530  12.857 -0.33 +0.03    +0.079 A 
DOCKED: ATOM     16  C2C HEM A1501      55.866  75.139  14.209 -0.41 -0.00    -0.003 A 
DOCKED: ATOM     17  C3C HEM A1501      55.709  76.254  14.968 -0.41 +0.01    +0.015 A 
DOCKED: ATOM     18  C4C HEM A1501      55.307  77.338  14.051 -0.34 +0.03    +0.083 A 
DOCKED: ATOM     19  CMC HEM A1501      56.262  73.733  14.610 -0.55 +0.01    +0.033 C 
DOCKED: ATOM     20  C1D HEM A1501      54.632  79.763  13.524 -0.34 +0.05    +0.079 A 
DOCKED: ATOM     21  C2D HEM A1501      54.341  81.100  13.946 -0.41 -0.00    -0.007 A 
DOCKED: ATOM     22  C3D HEM A1501      54.091  81.813  12.818 -0.37 -0.01    -0.006 A 
DOCKED: ATOM     23  C4D HEM A1501      54.237  80.905  11.697 -0.24 +0.07    +0.079 A 
DOCKED: ATOM     24  CMD HEM A1501      54.322  81.603  15.335 -0.43 +0.02    +0.032 C 
DOCKED: ATOM     25  NA  HEM A1501      54.565  79.029   9.394 -0.16 -0.20    -0.246 N 
DOCKED: ATOM     26  NB  HEM A1501      55.157  76.286   9.969 -0.07 -0.11    -0.246 N 
DOCKED: ATOM     27  NC  HEM A1501      55.272  76.851  12.809 -0.17 -0.11    -0.246 N 
DOCKED: ATOM     28  ND  HEM A1501      54.568  79.672  12.162 -0.14 -0.18    -0.246 N 
DOCKED: ATOM     29 FE   HEM A1501      54.900  77.966  11.105 -0.07 +0.00    +0.000 Fe
DOCKED: ENDROOT
DOCKED: BRANCH  22  30
DOCKED: ATOM     30  CAD HEM A1501      53.741  83.253  12.807 -0.45 +0.04    +0.039 C 
DOCKED: BRANCH  30  31
DOCKED: ATOM     31  CBD HEM A1501      52.245  83.479  13.027 -0.49 +0.12    +0.102 C 
DOCKED: BRANCH  31  32
DOCKED: ATOM     32  CGD HEM A1501      51.922  84.882  13.503 -0.51 +0.26    +0.186 C 
DOCKED: ATOM     33  O1D HEM A1501      52.943  85.589  13.646 -0.51 -1.13    -0.647 OA
DOCKED: ATOM     34  O2D HEM A1501      50.695  85.303  13.688 -1.00 -0.89    -0.647 OA
DOCKED: ENDBRANCH  31  32
DOCKED: ENDBRANCH  30  31
DOCKED: ENDBRANCH  22  30
DOCKED: BRANCH   6  35
DOCKED: ATOM     35  CAA HEM A1501      53.862  82.046   7.270 -0.44 +0.05    +0.039 C 
DOCKED: BRANCH  35  36
DOCKED: ATOM     36  CBA HEM A1501      52.376  82.269   7.064 -0.56 +0.16    +0.102 C 
DOCKED: BRANCH  36  37
DOCKED: ATOM     37  CGA HEM A1501      52.038  83.525   6.309 -0.60 +0.35    +0.186 C 
DOCKED: ATOM     38  O1A HEM A1501      52.693  84.563   6.558 -1.13 -1.67    -0.647 OA
DOCKED: ATOM     39  O2A HEM A1501      51.149  83.470   5.434 -1.05 -1.29    -0.647 OA
DOCKED: ENDBRANCH  36  37
DOCKED: ENDBRANCH  35  36
DOCKED: ENDBRANCH   6  35
DOCKED: BRANCH  17  40
DOCKED: ATOM     40  CAC HEM A1501      55.883  76.400  16.418 -0.59 +0.00    +0.001 C 
DOCKED: ATOM     41  CBC HEM A1501      55.090  75.897  17.377 -0.68 +0.00    +0.000 C 
DOCKED: ENDBRANCH  17  40
DOCKED: BRANCH  12  42
DOCKED: ATOM     42  CAB HEM A1501      55.767  72.664   9.507 -0.48 +0.00    +0.001 C 
DOCKED: ATOM     43  CBB HEM A1501      55.000  71.614   9.290 -0.57 +0.00    +0.000 C 
DOCKED: ENDBRANCH  12  42
DOCKED: TORSDOF 8
DOCKED: TER
DOCKED: ENDMDL
________________________________________________________________________________


	BEGINNING GENETIC ALGORITHM DOCKING 60 of 100
Run: 60 Seed: 1157077098 737014962 [ Run 60 of 100 GA/GALS ]
Beginning LAMARCKIAN GENETIC ALGORITHM (LGA), with a maximum of 2500000 energy evaluations.

Final-Value: -23.254


	FINAL GENETIC ALGORITHM DOCKED STATE
	_______________________________________________


Detailed state:  trans 54.328 78.940 10.614 quatxyzw 0.017670 0.017166 -0.015777 0.999572 center 54.495 78.699 10.493 ntor 8 -17.7295 -43.8454 180.0000 174.7026 6.6969 -21.1516 8.7174 -6.2949
State:	 54.328  78.940  10.614   0.604  0.587 -0.539  3.353    -17.73  -43.85  180.00  174.70    6.70  -21.15    8.72   -6.29

DOCKED: MODEL       60
DOCKED: USER    Run = 60
DOCKED: USER    DPF = C:/Users/georg/Desktop/Dock/executables_autodock_tools/receptor.dpf
DOCKED: USER  
DOCKED: USER    Estimated Free Energy of Binding    =  -20.24 kcal/mol  [=(1)+(2)+(3)-(4)]
DOCKED: USER    Estimated Inhibition Constant, Ki   =    1.45 fM (femtomolar)  [Temperature = 298.15 K]
DOCKED: USER    
DOCKED: USER    (1) Final Intermolecular Energy     =  -22.63 kcal/mol
DOCKED: USER        vdW + Hbond + desolv Energy     =  -18.52 kcal/mol
DOCKED: USER        Electrostatic Energy            =   -4.11 kcal/mol
DOCKED: USER    (2) Final Total Internal Energy     =   -0.63 kcal/mol
DOCKED: USER    (3) Torsional Free Energy           =   +2.39 kcal/mol
DOCKED: USER    (4) Unbound System's Energy  [=(2)] =   -0.63 kcal/mol
DOCKED: USER    
DOCKED: USER    
DOCKED: USER    NEWDPF move ligand.pdbqt
DOCKED: USER    NEWDPF about 54.495000 78.699000 10.493000
DOCKED: USER    NEWDPF tran0 54.327525 78.940451 10.613937
DOCKED: USER    NEWDPF quaternion0 0.017670 0.017166 -0.015777 0.999572
DOCKED: USER    NEWDPF axisangle0 0.604007 0.586789 -0.539308 3.352748
DOCKED: USER    NEWDPF quat0 0.604007 0.586789 -0.539308 3.352748
DOCKED: USER    NEWDPF dihe0 -17.73 -43.85 180.00 174.70 6.70 -21.15 8.72 -6.29 
DOCKED: USER  keepresnum = 1 
DOCKED: USER  
DOCKED: REMARK  8 active torsions:
DOCKED: REMARK  status: ('A' for Active; 'I' for Inactive)
DOCKED: REMARK    1  A    between atoms: C2A_3624  and  CAA_3628 
DOCKED: REMARK    2  A    between atoms: CAA_3628  and  CBA_3629 
DOCKED: REMARK    3  A    between atoms: CBA_3629  and  CGA_3630 
DOCKED: REMARK    4  A    between atoms: C3B_3635  and  CAB_3638 
DOCKED: REMARK    5  A    between atoms: C3C_3642  and  CAC_3645 
DOCKED: REMARK    6  A    between atoms: C3D_3649  and  CAD_3652 
DOCKED: REMARK    7  A    between atoms: CAD_3652  and  CBD_3653 
DOCKED: REMARK    8  A    between atoms: CBD_3653  and  CGD_3654 
DOCKED: USER                              x       y       z     vdW  Elec       q    Type
DOCKED: USER                           _______ _______ _______ _____ _____    ______ ____
DOCKED: ROOT
DOCKED: ATOM      1  CHA HEM A1501      54.203  81.253  10.117 -0.28 +0.04    +0.038 A 
DOCKED: ATOM      2  CHB HEM A1501      55.007  78.754  14.147 -0.39 +0.02    +0.038 A 
DOCKED: ATOM      3  CHC HEM A1501      55.466  74.700  11.571 -0.39 +0.01    +0.038 A 
DOCKED: ATOM      4  CHD HEM A1501      54.595  77.192   7.540 -0.38 +0.03    +0.038 A 
DOCKED: ATOM      5  C1A HEM A1501      54.355  80.926  11.460 -0.23 +0.07    +0.079 A 
DOCKED: ATOM      6  C2A HEM A1501      54.254  81.838  12.604 -0.34 -0.01    -0.006 A 
DOCKED: ATOM      7  C3A HEM A1501      54.482  81.124  13.697 -0.38 -0.00    -0.007 A 
DOCKED: ATOM      8  C4A HEM A1501      54.714  79.779  13.268 -0.31 +0.05    +0.079 A 
DOCKED: ATOM      9  CMA HEM A1501      54.479  81.606  15.116 -0.47 +0.02    +0.032 C 
DOCKED: ATOM     10  C1B HEM A1501      55.234  77.432  13.810 -0.33 +0.03    +0.079 A 
DOCKED: ATOM     11  C2B HEM A1501      55.559  76.390  14.776 -0.41 -0.00    -0.003 A 
DOCKED: ATOM     12  C3B HEM A1501      55.703  75.255  14.043 -0.38 +0.01    +0.015 A 
DOCKED: ATOM     13  C4B HEM A1501      55.441  75.602  12.649 -0.32 +0.03    +0.083 A 
DOCKED: ATOM     14  CMB HEM A1501      55.698  76.605  16.258 -0.53 +0.01    +0.033 C 
DOCKED: ATOM     15  C1C HEM A1501      55.246  74.961  10.246 -0.36 +0.03    +0.079 A 
DOCKED: ATOM     16  C2C HEM A1501      55.203  73.976   9.200 -0.46 -0.00    -0.003 A 
DOCKED: ATOM     17  C3C HEM A1501      54.942  74.653   8.052 -0.45 +0.01    +0.015 A 
DOCKED: ATOM     18  C4C HEM A1501      54.833  76.079   8.416 -0.35 +0.05    +0.083 A 
DOCKED: ATOM     19  CMC HEM A1501      55.419  72.495   9.433 -0.53 +0.01    +0.033 C 
DOCKED: ATOM     20  C1D HEM A1501      54.462  78.564   7.866 -0.32 +0.06    +0.079 A 
DOCKED: ATOM     21  C2D HEM A1501      54.217  79.612   6.923 -0.36 -0.01    -0.007 A 
DOCKED: ATOM     22  C3D HEM A1501      54.107  80.758   7.643 -0.35 -0.01    -0.006 A 
DOCKED: ATOM     23  C4D HEM A1501      54.279  80.405   9.039 -0.26 +0.08    +0.079 A 
DOCKED: ATOM     24  CMD HEM A1501      54.104  79.473   5.457 -0.48 +0.03    +0.032 C 
DOCKED: ATOM     25  NA  HEM A1501      54.609  79.659  11.914 -0.13 -0.18    -0.246 N 
DOCKED: ATOM     26  NB  HEM A1501      55.185  76.923  12.534 -0.13 -0.11    -0.246 N 
DOCKED: ATOM     27  NC  HEM A1501      54.997  76.193   9.736 -0.02 -0.12    -0.246 N 
DOCKED: ATOM     28  ND  HEM A1501      54.489  79.066   9.137 -0.18 -0.20    -0.246 N 
DOCKED: ATOM     29 FE   HEM A1501      54.810  77.953  10.809 -0.07 +0.00    +0.000 Fe
DOCKED: ENDROOT
DOCKED: BRANCH  22  30
DOCKED: ATOM     30  CAD HEM A1501      53.855  82.091   7.048 -0.45 +0.05    +0.039 C 
DOCKED: BRANCH  30  31
DOCKED: ATOM     31  CBD HEM A1501      52.365  82.428   7.010 -0.57 +0.16    +0.102 C 
DOCKED: BRANCH  31  32
DOCKED: ATOM     32  CGD HEM A1501      52.061  83.686   6.219 -0.63 +0.36    +0.186 C 
DOCKED: ATOM     33  O1D HEM A1501      52.937  84.568   6.362 -1.19 -1.66    -0.647 OA
DOCKED: ATOM     34  O2D HEM A1501      51.016  83.798   5.437 -1.05 -1.36    -0.647 OA
DOCKED: ENDBRANCH  31  32
DOCKED: ENDBRANCH  30  31
DOCKED: ENDBRANCH  22  30
DOCKED: BRANCH   6  35
DOCKED: ATOM     35  CAA HEM A1501      53.949  83.294  12.587 -0.42 +0.05    +0.039 C 
DOCKED: BRANCH  35  36
DOCKED: ATOM     36  CBA HEM A1501      52.463  83.557  12.739 -0.48 +0.12    +0.102 C 
DOCKED: BRANCH  36  37
DOCKED: ATOM     37  CGA HEM A1501      52.129  84.906  13.315 -0.49 +0.27    +0.186 C 
DOCKED: ATOM     38  O1A HEM A1501      53.070  85.645  13.684 -0.50 -1.13    -0.647 OA
DOCKED: ATOM     39  O2A HEM A1501      50.930  85.252  13.358 -0.75 -0.92    -0.647 OA
DOCKED: ENDBRANCH  36  37
DOCKED: ENDBRANCH  35  36
DOCKED: ENDBRANCH   6  35
DOCKED: BRANCH  17  40
DOCKED: ATOM     40  CAC HEM A1501      54.796  74.118   6.693 -0.59 +0.00    +0.001 C 
DOCKED: ATOM     41  CBC HEM A1501      53.648  73.896   6.036 -0.65 +0.00    +0.000 C 
DOCKED: ENDBRANCH  17  40
DOCKED: BRANCH  12  42
DOCKED: ATOM     42  CAB HEM A1501      56.044  73.871  14.447 -0.55 +0.00    +0.001 C 
DOCKED: ATOM     43  CBB HEM A1501      57.166  73.374  14.928 -0.60 +0.00    +0.000 C 
DOCKED: ENDBRANCH  12  42
DOCKED: TORSDOF 8
DOCKED: TER
DOCKED: ENDMDL
________________________________________________________________________________


	BEGINNING GENETIC ALGORITHM DOCKING 61 of 100
Run: 61 Seed: 567137878 1494910089 [ Run 61 of 100 GA/GALS ]
Beginning LAMARCKIAN GENETIC ALGORITHM (LGA), with a maximum of 2500000 energy evaluations.

Final-Value: -23.523


	FINAL GENETIC ALGORITHM DOCKED STATE
	_______________________________________________


Detailed state:  trans 54.885 78.855 10.635 quatxyzw 0.165336 -0.974617 0.150857 -0.005212 center 54.495 78.699 10.493 ntor 8 137.4980 168.4316 -126.0296 -12.2065 15.9969 9.9196 -170.0291 146.6293
State:	 54.885  78.855  10.635   0.165 -0.975  0.151 -179.403    137.50  168.43 -126.03  -12.21   16.00    9.92 -170.03  146.63

DOCKED: MODEL       61
DOCKED: USER    Run = 61
DOCKED: USER    DPF = C:/Users/georg/Desktop/Dock/executables_autodock_tools/receptor.dpf
DOCKED: USER  
DOCKED: USER    Estimated Free Energy of Binding    =  -20.64 kcal/mol  [=(1)+(2)+(3)-(4)]
DOCKED: USER    Estimated Inhibition Constant, Ki   =  741.65 aM (attomolar)  [Temperature = 298.15 K]
DOCKED: USER    
DOCKED: USER    (1) Final Intermolecular Energy     =  -23.03 kcal/mol
DOCKED: USER        vdW + Hbond + desolv Energy     =  -18.57 kcal/mol
DOCKED: USER        Electrostatic Energy            =   -4.46 kcal/mol
DOCKED: USER    (2) Final Total Internal Energy     =   -0.50 kcal/mol
DOCKED: USER    (3) Torsional Free Energy           =   +2.39 kcal/mol
DOCKED: USER    (4) Unbound System's Energy  [=(2)] =   -0.50 kcal/mol
DOCKED: USER    
DOCKED: USER    
DOCKED: USER    NEWDPF move ligand.pdbqt
DOCKED: USER    NEWDPF about 54.495000 78.699000 10.493000
DOCKED: USER    NEWDPF tran0 54.884682 78.854810 10.635339
DOCKED: USER    NEWDPF quaternion0 0.165336 -0.974617 0.150857 -0.005212
DOCKED: USER    NEWDPF axisangle0 0.165338 -0.974631 0.150859 -179.402712
DOCKED: USER    NEWDPF quat0 0.165338 -0.974631 0.150859 -179.402712
DOCKED: USER    NEWDPF dihe0 137.50 168.43 -126.03 -12.21 16.00 9.92 -170.03 146.63 
DOCKED: USER  keepresnum = 1 
DOCKED: USER  
DOCKED: REMARK  8 active torsions:
DOCKED: REMARK  status: ('A' for Active; 'I' for Inactive)
DOCKED: REMARK    1  A    between atoms: C2A_3624  and  CAA_3628 
DOCKED: REMARK    2  A    between atoms: CAA_3628  and  CBA_3629 
DOCKED: REMARK    3  A    between atoms: CBA_3629  and  CGA_3630 
DOCKED: REMARK    4  A    between atoms: C3B_3635  and  CAB_3638 
DOCKED: REMARK    5  A    between atoms: C3C_3642  and  CAC_3645 
DOCKED: REMARK    6  A    between atoms: C3D_3649  and  CAD_3652 
DOCKED: REMARK    7  A    between atoms: CAD_3652  and  CBD_3653 
DOCKED: REMARK    8  A    between atoms: CBD_3653  and  CGD_3654 
DOCKED: USER                              x       y       z     vdW  Elec       q    Type
DOCKED: USER                           _______ _______ _______ _____ _____    ______ ____
DOCKED: ROOT
DOCKED: ATOM      1  CHA HEM A1501      54.176  81.097  10.343 -0.27 +0.04    +0.038 A 
DOCKED: ATOM      2  CHB HEM A1501      54.383  77.265   7.441 -0.40 +0.03    +0.038 A 
DOCKED: ATOM      3  CHC HEM A1501      55.333  74.422  11.222 -0.40 +0.01    +0.038 A 
DOCKED: ATOM      4  CHD HEM A1501      55.192  78.269  14.120 -0.38 +0.02    +0.038 A 
DOCKED: ATOM      5  C1A HEM A1501      54.175  80.303   9.201 -0.26 +0.08    +0.079 A 
DOCKED: ATOM      6  C2A HEM A1501      53.971  80.750   7.819 -0.36 -0.01    -0.006 A 
DOCKED: ATOM      7  C3A HEM A1501      54.030  79.677   7.045 -0.37 -0.01    -0.007 A 
DOCKED: ATOM      8  C4A HEM A1501      54.279  78.562   7.907 -0.34 +0.06    +0.079 A 
DOCKED: ATOM      9  CMA HEM A1501      53.891  79.620   5.554 -0.45 +0.03    +0.032 C 
DOCKED: ATOM     10  C1B HEM A1501      54.630  76.142   8.209 -0.36 +0.05    +0.079 A 
DOCKED: ATOM     11  C2B HEM A1501      54.712  74.790   7.671 -0.47 -0.00    -0.003 A 
DOCKED: ATOM     12  C3B HEM A1501      54.964  73.993   8.741 -0.45 +0.01    +0.015 A 
DOCKED: ATOM     13  C4B HEM A1501      55.059  74.858   9.914 -0.36 +0.03    +0.083 A 
DOCKED: ATOM     14  CMB HEM A1501      54.536  74.430   6.221 -0.59 +0.02    +0.033 C 
DOCKED: ATOM     15  C1C HEM A1501      55.421  75.174  12.362 -0.34 +0.03    +0.079 A 
DOCKED: ATOM     16  C2C HEM A1501      55.788  74.678  13.659 -0.42 -0.00    -0.003 A 
DOCKED: ATOM     17  C3C HEM A1501      55.772  75.749  14.494 -0.38 +0.01    +0.015 A 
DOCKED: ATOM     18  C4C HEM A1501      55.378  76.915  13.679 -0.31 +0.03    +0.083 A 
DOCKED: ATOM     19  CMC HEM A1501      56.113  73.225  13.942 -0.54 +0.01    +0.033 C 
DOCKED: ATOM     20  C1D HEM A1501      54.839  79.409  13.356 -0.32 +0.05    +0.079 A 
DOCKED: ATOM     21  C2D HEM A1501      54.679  80.732  13.879 -0.38 -0.00    -0.007 A 
DOCKED: ATOM     22  C3D HEM A1501      54.393  81.531  12.820 -0.33 -0.00    -0.006 A 
DOCKED: ATOM     23  C4D HEM A1501      54.384  80.691  11.638 -0.22 +0.07    +0.079 A 
DOCKED: ATOM     24  CMD HEM A1501      54.806  81.144  15.291 -0.46 +0.01    +0.032 C 
DOCKED: ATOM     25  NA  HEM A1501      54.394  78.950   9.209 -0.18 -0.20    -0.246 N 
DOCKED: ATOM     26  NB  HEM A1501      54.830  76.143   9.569 -0.05 -0.12    -0.246 N 
DOCKED: ATOM     27  NC  HEM A1501      55.210  76.513  12.418 -0.13 -0.11    -0.246 N 
DOCKED: ATOM     28  ND  HEM A1501      54.661  79.410  12.000 -0.11 -0.17    -0.246 N 
DOCKED: ATOM     29 FE   HEM A1501      54.785  77.759  10.820 -0.07 +0.00    +0.000 Fe
DOCKED: ENDROOT
DOCKED: BRANCH  22  30
DOCKED: ATOM     30  CAD HEM A1501      54.147  82.989  12.924 -0.39 +0.04    +0.039 C 
DOCKED: BRANCH  30  31
DOCKED: ATOM     31  CBD HEM A1501      52.689  83.300  13.260 -0.52 +0.11    +0.102 C 
DOCKED: BRANCH  31  32
DOCKED: ATOM     32  CGD HEM A1501      52.302  84.734  12.951 -0.45 +0.27    +0.186 C 
DOCKED: ATOM     33  O1D HEM A1501      53.111  85.295  12.179 -0.59 -1.47    -0.647 OA
DOCKED: ATOM     34  O2D HEM A1501      51.209  85.289  13.413 -0.70 -0.95    -0.647 OA
DOCKED: ENDBRANCH  31  32
DOCKED: ENDBRANCH  30  31
DOCKED: ENDBRANCH  22  30
DOCKED: BRANCH   6  35
DOCKED: ATOM     35  CAA HEM A1501      53.743  82.139   7.333 -0.45 +0.06    +0.039 C 
DOCKED: BRANCH  35  36
DOCKED: ATOM     36  CBA HEM A1501      52.363  82.301   6.727 -0.57 +0.16    +0.102 C 
DOCKED: BRANCH  36  37
DOCKED: ATOM     37  CGA HEM A1501      52.119  83.642   6.090 -0.64 +0.35    +0.186 C 
DOCKED: ATOM     38  O1A HEM A1501      51.093  83.788   5.386 -1.06 -1.33    -0.647 OA
DOCKED: ATOM     39  O2A HEM A1501      52.925  84.565   6.327 -1.18 -1.64    -0.647 OA
DOCKED: ENDBRANCH  36  37
DOCKED: ENDBRANCH  35  36
DOCKED: ENDBRANCH   6  35
DOCKED: BRANCH  17  40
DOCKED: ATOM     40  CAC HEM A1501      56.070  75.788  15.931 -0.55 +0.00    +0.001 C 
DOCKED: ATOM     41  CBC HEM A1501      55.182  75.871  16.934 -0.64 +0.00    +0.000 C 
DOCKED: ENDBRANCH  17  40
DOCKED: BRANCH  12  42
DOCKED: ATOM     42  CAB HEM A1501      55.140  72.526   8.844 -0.56 +0.00    +0.001 C 
DOCKED: ATOM     43  CBB HEM A1501      55.929  71.812   9.622 -0.55 +0.00    +0.000 C 
DOCKED: ENDBRANCH  12  42
DOCKED: TORSDOF 8
DOCKED: TER
DOCKED: ENDMDL
________________________________________________________________________________


	BEGINNING GENETIC ALGORITHM DOCKING 62 of 100
Run: 62 Seed: 87637375 569986191 [ Run 62 of 100 GA/GALS ]
Beginning LAMARCKIAN GENETIC ALGORITHM (LGA), with a maximum of 2500000 energy evaluations.

Final-Value: -23.441


	FINAL GENETIC ALGORITHM DOCKED STATE
	_______________________________________________


Detailed state:  trans 54.969 78.958 10.726 quatxyzw 0.168174 -0.975061 0.144751 0.004500 center 54.495 78.699 10.493 ntor 8 131.2936 39.5051 -131.4112 -29.0162 22.5581 17.2911 -168.1289 154.7352
State:	 54.969  78.958  10.726   0.168 -0.975  0.145 179.484    131.29   39.51 -131.41  -29.02   22.56   17.29 -168.13  154.74

DOCKED: MODEL       62
DOCKED: USER    Run = 62
DOCKED: USER    DPF = C:/Users/georg/Desktop/Dock/executables_autodock_tools/receptor.dpf
DOCKED: USER  
DOCKED: USER    Estimated Free Energy of Binding    =  -20.53 kcal/mol  [=(1)+(2)+(3)-(4)]
DOCKED: USER    Estimated Inhibition Constant, Ki   =  887.00 aM (attomolar)  [Temperature = 298.15 K]
DOCKED: USER    
DOCKED: USER    (1) Final Intermolecular Energy     =  -22.92 kcal/mol
DOCKED: USER        vdW + Hbond + desolv Energy     =  -18.39 kcal/mol
DOCKED: USER        Electrostatic Energy            =   -4.53 kcal/mol
DOCKED: USER    (2) Final Total Internal Energy     =   -0.52 kcal/mol
DOCKED: USER    (3) Torsional Free Energy           =   +2.39 kcal/mol
DOCKED: USER    (4) Unbound System's Energy  [=(2)] =   -0.52 kcal/mol
DOCKED: USER    
DOCKED: USER    
DOCKED: USER    NEWDPF move ligand.pdbqt
DOCKED: USER    NEWDPF about 54.495000 78.699000 10.493000
DOCKED: USER    NEWDPF tran0 54.969257 78.958154 10.725751
DOCKED: USER    NEWDPF quaternion0 0.168174 -0.975061 0.144751 0.004500
DOCKED: USER    NEWDPF axisangle0 0.168175 -0.975071 0.144753 179.484343
DOCKED: USER    NEWDPF quat0 0.168175 -0.975071 0.144753 179.484343
DOCKED: USER    NEWDPF dihe0 131.29 39.51 -131.41 -29.02 22.56 17.29 -168.13 154.74 
DOCKED: USER  keepresnum = 1 
DOCKED: USER  
DOCKED: REMARK  8 active torsions:
DOCKED: REMARK  status: ('A' for Active; 'I' for Inactive)
DOCKED: REMARK    1  A    between atoms: C2A_3624  and  CAA_3628 
DOCKED: REMARK    2  A    between atoms: CAA_3628  and  CBA_3629 
DOCKED: REMARK    3  A    between atoms: CBA_3629  and  CGA_3630 
DOCKED: REMARK    4  A    between atoms: C3B_3635  and  CAB_3638 
DOCKED: REMARK    5  A    between atoms: C3C_3642  and  CAC_3645 
DOCKED: REMARK    6  A    between atoms: C3D_3649  and  CAD_3652 
DOCKED: REMARK    7  A    between atoms: CAD_3652  and  CBD_3653 
DOCKED: REMARK    8  A    between atoms: CBD_3653  and  CGD_3654 
DOCKED: USER                              x       y       z     vdW  Elec       q    Type
DOCKED: USER                           _______ _______ _______ _____ _____    ______ ____
DOCKED: ROOT
DOCKED: ATOM      1  CHA HEM A1501      54.247  81.198  10.456 -0.27 +0.04    +0.038 A 
DOCKED: ATOM      2  CHB HEM A1501      54.532  77.414   7.500 -0.38 +0.03    +0.038 A 
DOCKED: ATOM      3  CHC HEM A1501      55.445  74.521  11.252 -0.40 +0.01    +0.038 A 
DOCKED: ATOM      4  CHD HEM A1501      55.225  78.322  14.205 -0.38 +0.02    +0.038 A 
DOCKED: ATOM      5  C1A HEM A1501      54.271  80.422   9.302 -0.25 +0.08    +0.079 A 
DOCKED: ATOM      6  C2A HEM A1501      54.085  80.889   7.924 -0.35 -0.01    -0.006 A 
DOCKED: ATOM      7  C3A HEM A1501      54.165  79.828   7.135 -0.36 -0.01    -0.007 A 
DOCKED: ATOM      8  C4A HEM A1501      54.410  78.702   7.984 -0.32 +0.06    +0.079 A 
DOCKED: ATOM      9  CMA HEM A1501      54.050  79.793   5.641 -0.47 +0.03    +0.032 C 
DOCKED: ATOM     10  C1B HEM A1501      54.776  76.281   8.255 -0.35 +0.05    +0.079 A 
DOCKED: ATOM     11  C2B HEM A1501      54.878  74.938   7.697 -0.47 -0.00    -0.003 A 
DOCKED: ATOM     12  C3B HEM A1501      55.119  74.126   8.760 -0.45 +0.01    +0.015 A 
DOCKED: ATOM     13  C4B HEM A1501      55.188  74.974   9.946 -0.36 +0.03    +0.083 A 
DOCKED: ATOM     14  CMB HEM A1501      54.728  74.599   6.240 -0.59 +0.02    +0.033 C 
DOCKED: ATOM     15  C1C HEM A1501      55.509  75.256  12.405 -0.34 +0.03    +0.079 A 
DOCKED: ATOM     16  C2C HEM A1501      55.859  74.743  13.700 -0.42 -0.00    -0.003 A 
DOCKED: ATOM     17  C3C HEM A1501      55.821  75.801  14.551 -0.39 +0.01    +0.015 A 
DOCKED: ATOM     18  C4C HEM A1501      55.430  76.976  13.748 -0.31 +0.03    +0.083 A 
DOCKED: ATOM     19  CMC HEM A1501      56.192  73.289  13.966 -0.55 +0.01    +0.033 C 
DOCKED: ATOM     20  C1D HEM A1501      54.875  79.470  13.453 -0.32 +0.04    +0.079 A 
DOCKED: ATOM     21  C2D HEM A1501      54.696  80.783  13.994 -0.39 -0.00    -0.007 A 
DOCKED: ATOM     22  C3D HEM A1501      54.420  81.597  12.942 -0.33 -0.00    -0.006 A 
DOCKED: ATOM     23  C4D HEM A1501      54.437  80.774  11.748 -0.24 +0.07    +0.079 A 
DOCKED: ATOM     24  CMD HEM A1501      54.797  81.175  15.414 -0.46 +0.01    +0.032 C 
DOCKED: ATOM     25  NA  HEM A1501      54.500  79.071   9.293 -0.17 -0.20    -0.246 N 
DOCKED: ATOM     26  NB  HEM A1501      54.955  76.262   9.617 -0.04 -0.12    -0.246 N 
DOCKED: ATOM     27  NC  HEM A1501      55.285  76.592  12.478 -0.15 -0.11    -0.246 N 
DOCKED: ATOM     28  ND  HEM A1501      54.719  79.491  12.095 -0.13 -0.17    -0.246 N 
DOCKED: ATOM     29 FE   HEM A1501      54.876  77.859  10.892 -0.07 +0.00    +0.000 Fe
DOCKED: ENDROOT
DOCKED: BRANCH  22  30
DOCKED: ATOM     30  CAD HEM A1501      54.160  83.051  13.064 -0.39 +0.04    +0.039 C 
DOCKED: BRANCH  30  31
DOCKED: ATOM     31  CBD HEM A1501      52.705  83.342  13.428 -0.50 +0.11    +0.102 C 
DOCKED: BRANCH  31  32
DOCKED: ATOM     32  CGD HEM A1501      52.252  84.724  12.995 -0.46 +0.27    +0.186 C 
DOCKED: ATOM     33  O1D HEM A1501      53.064  85.276  12.221 -0.60 -1.44    -0.647 OA
DOCKED: ATOM     34  O2D HEM A1501      51.106  85.243  13.363 -0.69 -0.94    -0.647 OA
DOCKED: ENDBRANCH  31  32
DOCKED: ENDBRANCH  30  31
DOCKED: ENDBRANCH  22  30
DOCKED: BRANCH   6  35
DOCKED: ATOM     35  CAA HEM A1501      53.853  82.283   7.456 -0.42 +0.06    +0.039 C 
DOCKED: BRANCH  35  36
DOCKED: ATOM     36  CBA HEM A1501      52.418  82.494   7.012 -0.57 +0.16    +0.102 C 
DOCKED: BRANCH  36  37
DOCKED: ATOM     37  CGA HEM A1501      52.189  83.765   6.241 -0.64 +0.36    +0.186 C 
DOCKED: ATOM     38  O1A HEM A1501      51.253  83.795   5.409 -1.06 -1.29    -0.647 OA
DOCKED: ATOM     39  O2A HEM A1501      52.911  84.751   6.495 -1.06 -1.82    -0.647 OA
DOCKED: ENDBRANCH  36  37
DOCKED: ENDBRANCH  35  36
DOCKED: ENDBRANCH   6  35
DOCKED: BRANCH  17  40
DOCKED: ATOM     40  CAC HEM A1501      56.095  75.821  15.992 -0.55 +0.00    +0.001 C 
DOCKED: ATOM     41  CBC HEM A1501      55.202  75.997  16.978 -0.64 +0.00    +0.000 C 
DOCKED: ENDBRANCH  17  40
DOCKED: BRANCH  12  42
DOCKED: ATOM     42  CAB HEM A1501      55.306  72.660   8.843 -0.54 +0.00    +0.001 C 
DOCKED: ATOM     43  CBB HEM A1501      55.560  71.776   7.898 -0.55 +0.00    +0.000 C 
DOCKED: ENDBRANCH  12  42
DOCKED: TORSDOF 8
DOCKED: TER
DOCKED: ENDMDL
________________________________________________________________________________


	BEGINNING GENETIC ALGORITHM DOCKING 63 of 100
Run: 63 Seed: 1704743895 1327789981 [ Run 63 of 100 GA/GALS ]
Beginning LAMARCKIAN GENETIC ALGORITHM (LGA), with a maximum of 2500000 energy evaluations.

Final-Value: -23.022


	FINAL GENETIC ALGORITHM DOCKED STATE
	_______________________________________________


Detailed state:  trans 54.306 78.701 10.128 quatxyzw 0.044992 0.009167 -0.018577 0.998773 center 54.495 78.699 10.493 ntor 8 9.3819 -20.4932 -10.8607 163.1334 -12.8076 -28.9586 22.8455 10.6836
State:	 54.306  78.701  10.128   0.908  0.185 -0.375  5.678      9.38  -20.49  -10.86  163.13  -12.81  -28.96   22.85   10.68

DOCKED: MODEL       63
DOCKED: USER    Run = 63
DOCKED: USER    DPF = C:/Users/georg/Desktop/Dock/executables_autodock_tools/receptor.dpf
DOCKED: USER  
DOCKED: USER    Estimated Free Energy of Binding    =  -20.02 kcal/mol  [=(1)+(2)+(3)-(4)]
DOCKED: USER    Estimated Inhibition Constant, Ki   =    2.10 fM (femtomolar)  [Temperature = 298.15 K]
DOCKED: USER    
DOCKED: USER    (1) Final Intermolecular Energy     =  -22.41 kcal/mol
DOCKED: USER        vdW + Hbond + desolv Energy     =  -18.19 kcal/mol
DOCKED: USER        Electrostatic Energy            =   -4.22 kcal/mol
DOCKED: USER    (2) Final Total Internal Energy     =   -0.61 kcal/mol
DOCKED: USER    (3) Torsional Free Energy           =   +2.39 kcal/mol
DOCKED: USER    (4) Unbound System's Energy  [=(2)] =   -0.61 kcal/mol
DOCKED: USER    
DOCKED: USER    
DOCKED: USER    NEWDPF move ligand.pdbqt
DOCKED: USER    NEWDPF about 54.495000 78.699000 10.493000
DOCKED: USER    NEWDPF tran0 54.305864 78.700867 10.127997
DOCKED: USER    NEWDPF quaternion0 0.044992 0.009167 -0.018577 0.998773
DOCKED: USER    NEWDPF axisangle0 0.908340 0.185078 -0.375052 5.678265
DOCKED: USER    NEWDPF quat0 0.908340 0.185078 -0.375052 5.678265
DOCKED: USER    NEWDPF dihe0 9.38 -20.49 -10.86 163.13 -12.81 -28.96 22.85 10.68 
DOCKED: USER  keepresnum = 1 
DOCKED: USER  
DOCKED: REMARK  8 active torsions:
DOCKED: REMARK  status: ('A' for Active; 'I' for Inactive)
DOCKED: REMARK    1  A    between atoms: C2A_3624  and  CAA_3628 
DOCKED: REMARK    2  A    between atoms: CAA_3628  and  CBA_3629 
DOCKED: REMARK    3  A    between atoms: CBA_3629  and  CGA_3630 
DOCKED: REMARK    4  A    between atoms: C3B_3635  and  CAB_3638 
DOCKED: REMARK    5  A    between atoms: C3C_3642  and  CAC_3645 
DOCKED: REMARK    6  A    between atoms: C3D_3649  and  CAD_3652 
DOCKED: REMARK    7  A    between atoms: CAD_3652  and  CBD_3653 
DOCKED: REMARK    8  A    between atoms: CBD_3653  and  CGD_3654 
DOCKED: USER                              x       y       z     vdW  Elec       q    Type
DOCKED: USER                           _______ _______ _______ _____ _____    ______ ____
DOCKED: ROOT
DOCKED: ATOM      1  CHA HEM A1501      54.163  80.982   9.506 -0.30 +0.04    +0.038 A 
DOCKED: ATOM      2  CHB HEM A1501      55.039  78.712  13.656 -0.36 +0.02    +0.038 A 
DOCKED: ATOM      3  CHC HEM A1501      55.479  74.524  11.299 -0.40 +0.01    +0.038 A 
DOCKED: ATOM      4  CHD HEM A1501      54.535  76.787   7.151 -0.42 +0.02    +0.038 A 
DOCKED: ATOM      5  C1A HEM A1501      54.337  80.730  10.863 -0.20 +0.07    +0.079 A 
DOCKED: ATOM      6  C2A HEM A1501      54.249  81.703  11.957 -0.32 -0.01    -0.006 A 
DOCKED: ATOM      7  C3A HEM A1501      54.497  81.052  13.084 -0.34 -0.01    -0.007 A 
DOCKED: ATOM      8  C4A HEM A1501      54.729  79.685  12.726 -0.26 +0.05    +0.079 A 
DOCKED: ATOM      9  CMA HEM A1501      54.512  81.610  14.474 -0.44 +0.02    +0.032 C 
DOCKED: ATOM     10  C1B HEM A1501      55.268  77.375  13.388 -0.30 +0.04    +0.079 A 
DOCKED: ATOM     11  C2B HEM A1501      55.613  76.388  14.404 -0.40 -0.00    -0.003 A 
DOCKED: ATOM     12  C3B HEM A1501      55.750  75.215  13.733 -0.39 +0.01    +0.015 A 
DOCKED: ATOM     13  C4B HEM A1501      55.466  75.484  12.326 -0.32 +0.03    +0.083 A 
DOCKED: ATOM     14  CMB HEM A1501      55.772  76.685  15.870 -0.52 +0.01    +0.033 C 
DOCKED: ATOM     15  C1C HEM A1501      55.238  74.711   9.965 -0.38 +0.03    +0.079 A 
DOCKED: ATOM     16  C2C HEM A1501      55.184  73.670   8.976 -0.47 -0.00    -0.003 A 
DOCKED: ATOM     17  C3C HEM A1501      54.902  74.281   7.797 -0.46 +0.01    +0.015 A 
DOCKED: ATOM     18  C4C HEM A1501      54.792  75.725   8.084 -0.38 +0.05    +0.083 A 
DOCKED: ATOM     19  CMC HEM A1501      55.410  72.204   9.286 -0.54 +0.01    +0.033 C 
DOCKED: ATOM     20  C1D HEM A1501      54.400  78.174   7.404 -0.34 +0.06    +0.079 A 
DOCKED: ATOM     21  C2D HEM A1501      54.137  79.168   6.408 -0.38 -0.01    -0.007 A 
DOCKED: ATOM     22  C3D HEM A1501      54.032  80.352   7.066 -0.36 -0.01    -0.006 A 
DOCKED: ATOM     23  C4D HEM A1501      54.226  80.076   8.476 -0.29 +0.08    +0.079 A 
DOCKED: ATOM     24  CMD HEM A1501      54.002  78.948   4.954 -0.45 +0.02    +0.032 C 
DOCKED: ATOM     25  NA  HEM A1501      54.603  79.491  11.383 -0.08 -0.18    -0.246 N 
DOCKED: ATOM     26  NB  HEM A1501      55.202  76.795  12.143 -0.03 -0.11    -0.246 N 
DOCKED: ATOM     27  NC  HEM A1501      54.975  75.912   9.392 -0.19 -0.12    -0.246 N 
DOCKED: ATOM     28  ND  HEM A1501      54.444  78.745   8.645 -0.21 -0.20    -0.246 N 
DOCKED: ATOM     29 FE   HEM A1501      54.796  77.728  10.370 -0.07 +0.00    +0.000 Fe
DOCKED: ENDROOT
DOCKED: BRANCH  22  30
DOCKED: ATOM     30  CAD HEM A1501      53.765  81.649   6.402 -0.47 +0.05    +0.039 C 
DOCKED: BRANCH  30  31
DOCKED: ATOM     31  CBD HEM A1501      52.343  82.144   6.666 -0.57 +0.15    +0.102 C 
DOCKED: BRANCH  31  32
DOCKED: ATOM     32  CGD HEM A1501      52.123  83.578   6.223 -0.63 +0.35    +0.186 C 
DOCKED: ATOM     33  O1D HEM A1501      51.076  83.720   5.554 -1.00 -1.35    -0.647 OA
DOCKED: ATOM     34  O2D HEM A1501      52.928  84.556   6.558 -1.19 -1.72    -0.647 OA
DOCKED: ENDBRANCH  31  32
DOCKED: ENDBRANCH  30  31
DOCKED: ENDBRANCH  22  30
DOCKED: BRANCH   6  35
DOCKED: ATOM     35  CAA HEM A1501      53.936  83.155  11.864 -0.30 +0.05    +0.039 C 
DOCKED: BRANCH  35  36
DOCKED: ATOM     36  CBA HEM A1501      52.562  83.469  12.423 -0.46 +0.13    +0.102 C 
DOCKED: BRANCH  36  37
DOCKED: ATOM     37  CGA HEM A1501      52.453  84.818  13.080 -0.43 +0.28    +0.186 C 
DOCKED: ATOM     38  O1A HEM A1501      53.510  85.419  13.381 -0.50 -1.13    -0.647 OA
DOCKED: ATOM     39  O2A HEM A1501      51.317  85.303  13.255 -0.64 -0.98    -0.647 OA
DOCKED: ENDBRANCH  36  37
DOCKED: ENDBRANCH  35  36
DOCKED: ENDBRANCH   6  35
DOCKED: BRANCH  17  40
DOCKED: ATOM     40  CAC HEM A1501      54.739  73.672   6.471 -0.59 +0.00    +0.001 C 
DOCKED: ATOM     41  CBC HEM A1501      53.710  73.846   5.628 -0.66 +0.00    +0.000 C 
DOCKED: ENDBRANCH  17  40
DOCKED: BRANCH  12  42
DOCKED: ATOM     42  CAB HEM A1501      56.104  73.857  14.207 -0.55 +0.00    +0.001 C 
DOCKED: ATOM     43  CBB HEM A1501      57.040  73.462  15.047 -0.62 +0.00    +0.000 C 
DOCKED: ENDBRANCH  12  42
DOCKED: TORSDOF 8
DOCKED: TER
DOCKED: ENDMDL
________________________________________________________________________________


	BEGINNING GENETIC ALGORITHM DOCKING 64 of 100
Run: 64 Seed: 686840487 1120487744 [ Run 64 of 100 GA/GALS ]
Beginning LAMARCKIAN GENETIC ALGORITHM (LGA), with a maximum of 2500000 energy evaluations.

Final-Value: -23.547


	FINAL GENETIC ALGORITHM DOCKED STATE
	_______________________________________________


Detailed state:  trans 54.905 78.844 10.638 quatxyzw 0.165550 -0.973453 0.157937 0.006266 center 54.495 78.699 10.493 ntor 8 137.9654 174.4506 -126.1696 175.0258 14.6051 -3.0544 -164.4057 142.8162
State:	 54.905  78.844  10.638   0.166 -0.973  0.158 179.282    137.97  174.45 -126.17  175.03   14.61   -3.05 -164.41  142.82

DOCKED: MODEL       64
DOCKED: USER    Run = 64
DOCKED: USER    DPF = C:/Users/georg/Desktop/Dock/executables_autodock_tools/receptor.dpf
DOCKED: USER  
DOCKED: USER    Estimated Free Energy of Binding    =  -20.72 kcal/mol  [=(1)+(2)+(3)-(4)]
DOCKED: USER    Estimated Inhibition Constant, Ki   =  648.41 aM (attomolar)  [Temperature = 298.15 K]
DOCKED: USER    
DOCKED: USER    (1) Final Intermolecular Energy     =  -23.11 kcal/mol
DOCKED: USER        vdW + Hbond + desolv Energy     =  -18.63 kcal/mol
DOCKED: USER        Electrostatic Energy            =   -4.48 kcal/mol
DOCKED: USER    (2) Final Total Internal Energy     =   -0.44 kcal/mol
DOCKED: USER    (3) Torsional Free Energy           =   +2.39 kcal/mol
DOCKED: USER    (4) Unbound System's Energy  [=(2)] =   -0.44 kcal/mol
DOCKED: USER    
DOCKED: USER    
DOCKED: USER    NEWDPF move ligand.pdbqt
DOCKED: USER    NEWDPF about 54.495000 78.699000 10.493000
DOCKED: USER    NEWDPF tran0 54.904853 78.843809 10.637976
DOCKED: USER    NEWDPF quaternion0 0.165550 -0.973453 0.157937 0.006266
DOCKED: USER    NEWDPF axisangle0 0.165553 -0.973472 0.157940 179.281961
DOCKED: USER    NEWDPF quat0 0.165553 -0.973472 0.157940 179.281961
DOCKED: USER    NEWDPF dihe0 137.97 174.45 -126.17 175.03 14.61 -3.05 -164.41 142.82 
DOCKED: USER  keepresnum = 1 
DOCKED: USER  
DOCKED: REMARK  8 active torsions:
DOCKED: REMARK  status: ('A' for Active; 'I' for Inactive)
DOCKED: REMARK    1  A    between atoms: C2A_3624  and  CAA_3628 
DOCKED: REMARK    2  A    between atoms: CAA_3628  and  CBA_3629 
DOCKED: REMARK    3  A    between atoms: CBA_3629  and  CGA_3630 
DOCKED: REMARK    4  A    between atoms: C3B_3635  and  CAB_3638 
DOCKED: REMARK    5  A    between atoms: C3C_3642  and  CAC_3645 
DOCKED: REMARK    6  A    between atoms: C3D_3649  and  CAD_3652 
DOCKED: REMARK    7  A    between atoms: CAD_3652  and  CBD_3653 
DOCKED: REMARK    8  A    between atoms: CBD_3653  and  CGD_3654 
DOCKED: USER                              x       y       z     vdW  Elec       q    Type
DOCKED: USER                           _______ _______ _______ _____ _____    ______ ____
DOCKED: ROOT
DOCKED: ATOM      1  CHA HEM A1501      54.195  81.079  10.305 -0.27 +0.04    +0.038 A 
DOCKED: ATOM      2  CHB HEM A1501      54.489  77.219   7.449 -0.40 +0.03    +0.038 A 
DOCKED: ATOM      3  CHC HEM A1501      55.357  74.420  11.281 -0.40 +0.01    +0.038 A 
DOCKED: ATOM      4  CHD HEM A1501      55.128  78.295  14.135 -0.39 +0.02    +0.038 A 
DOCKED: ATOM      5  C1A HEM A1501      54.225  80.274   9.171 -0.26 +0.08    +0.079 A 
DOCKED: ATOM      6  C2A HEM A1501      54.053  80.706   7.780 -0.35 -0.01    -0.006 A 
DOCKED: ATOM      7  C3A HEM A1501      54.135  79.625   7.019 -0.36 -0.01    -0.007 A 
DOCKED: ATOM      8  C4A HEM A1501      54.368  78.520   7.898 -0.33 +0.06    +0.079 A 
DOCKED: ATOM      9  CMA HEM A1501      54.033  79.552   5.526 -0.47 +0.03    +0.032 C 
DOCKED: ATOM     10  C1B HEM A1501      54.721  76.105   8.234 -0.36 +0.05    +0.079 A 
DOCKED: ATOM     11  C2B HEM A1501      54.822  74.748   7.712 -0.47 -0.00    -0.003 A 
DOCKED: ATOM     12  C3B HEM A1501      55.051  73.963   8.797 -0.45 +0.01    +0.015 A 
DOCKED: ATOM     13  C4B HEM A1501      55.113  74.840   9.962 -0.37 +0.03    +0.083 A 
DOCKED: ATOM     14  CMB HEM A1501      54.683  74.372   6.263 -0.58 +0.02    +0.033 C 
DOCKED: ATOM     15  C1C HEM A1501      55.414  75.184  12.415 -0.34 +0.03    +0.079 A 
DOCKED: ATOM     16  C2C HEM A1501      55.751  74.702  13.727 -0.42 -0.00    -0.003 A 
DOCKED: ATOM     17  C3C HEM A1501      55.710  75.782  14.549 -0.38 +0.01    +0.015 A 
DOCKED: ATOM     18  C4C HEM A1501      55.331  76.938  13.713 -0.31 +0.03    +0.083 A 
DOCKED: ATOM     19  CMC HEM A1501      56.075  73.254  14.032 -0.55 +0.01    +0.033 C 
DOCKED: ATOM     20  C1D HEM A1501      54.790  79.425  13.350 -0.32 +0.05    +0.079 A 
DOCKED: ATOM     21  C2D HEM A1501      54.612  80.753  13.856 -0.39 -0.00    -0.007 A 
DOCKED: ATOM     22  C3D HEM A1501      54.348  81.540  12.782 -0.33 -0.00    -0.006 A 
DOCKED: ATOM     23  C4D HEM A1501      54.372  80.688  11.609 -0.22 +0.07    +0.079 A 
DOCKED: ATOM     24  CMD HEM A1501      54.702  81.180  15.267 -0.47 +0.01    +0.032 C 
DOCKED: ATOM     25  NA  HEM A1501      54.449  78.922   9.199 -0.18 -0.20    -0.246 N 
DOCKED: ATOM     26  NB  HEM A1501      54.888  76.121   9.599 -0.06 -0.12    -0.246 N 
DOCKED: ATOM     27  NC  HEM A1501      55.196  76.522  12.453 -0.14 -0.11    -0.246 N 
DOCKED: ATOM     28  ND  HEM A1501      54.646  79.412  11.991 -0.11 -0.17    -0.246 N 
DOCKED: ATOM     29 FE   HEM A1501      54.805  77.749  10.832 -0.07 +0.00    +0.000 Fe
DOCKED: ENDROOT
DOCKED: BRANCH  22  30
DOCKED: ATOM     30  CAD HEM A1501      54.093  82.998  12.864 -0.40 +0.04    +0.039 C 
DOCKED: BRANCH  30  31
DOCKED: ATOM     31  CBD HEM A1501      52.660  83.304  13.297 -0.52 +0.11    +0.102 C 
DOCKED: BRANCH  31  32
DOCKED: ATOM     32  CGD HEM A1501      52.247  84.736  13.009 -0.46 +0.27    +0.186 C 
DOCKED: ATOM     33  O1D HEM A1501      53.001  85.297  12.184 -0.59 -1.45    -0.647 OA
DOCKED: ATOM     34  O2D HEM A1501      51.183  85.287  13.539 -0.73 -0.94    -0.647 OA
DOCKED: ENDBRANCH  31  32
DOCKED: ENDBRANCH  30  31
DOCKED: ENDBRANCH  22  30
DOCKED: BRANCH   6  35
DOCKED: ATOM     35  CAA HEM A1501      53.831  82.088   7.275 -0.44 +0.06    +0.039 C 
DOCKED: BRANCH  35  36
DOCKED: ATOM     36  CBA HEM A1501      52.504  82.214   6.551 -0.57 +0.15    +0.102 C 
DOCKED: BRANCH  36  37
DOCKED: ATOM     37  CGA HEM A1501      52.143  83.621   6.161 -0.64 +0.35    +0.186 C 
DOCKED: ATOM     38  O1A HEM A1501      52.903  84.551   6.518 -1.18 -1.69    -0.647 OA
DOCKED: ATOM     39  O2A HEM A1501      51.127  83.799   5.458 -1.05 -1.33    -0.647 OA
DOCKED: ENDBRANCH  36  37
DOCKED: ENDBRANCH  35  36
DOCKED: ENDBRANCH   6  35
DOCKED: BRANCH  17  40
DOCKED: ATOM     40  CAC HEM A1501      55.972  75.837  15.993 -0.56 +0.00    +0.001 C 
DOCKED: ATOM     41  CBC HEM A1501      55.059  75.918  16.973 -0.63 +0.00    +0.000 C 
DOCKED: ENDBRANCH  17  40
DOCKED: BRANCH  12  42
DOCKED: ATOM     42  CAB HEM A1501      55.231  72.498   8.919 -0.56 +0.00    +0.001 C 
DOCKED: ATOM     43  CBB HEM A1501      55.922  71.792   9.791 -0.56 +0.00    +0.000 C 
DOCKED: ENDBRANCH  12  42
DOCKED: TORSDOF 8
DOCKED: TER
DOCKED: ENDMDL
________________________________________________________________________________


	BEGINNING GENETIC ALGORITHM DOCKING 65 of 100
Run: 65 Seed: 700966777 704956495 [ Run 65 of 100 GA/GALS ]
Beginning LAMARCKIAN GENETIC ALGORITHM (LGA), with a maximum of 2500000 energy evaluations.

Final-Value: -23.043


	FINAL GENETIC ALGORITHM DOCKED STATE
	_______________________________________________


Detailed state:  trans 54.330 78.909 10.665 quatxyzw -0.010648 -0.020865 0.019897 -0.999528 center 54.495 78.699 10.493 ntor 8 1.5821 -30.5088 47.1172 178.9458 -18.2180 -18.0270 -34.8391 0.5499
State:	 54.330  78.909  10.665  -0.346 -0.679  0.647 -3.522      1.58  -30.51   47.12  178.95  -18.22  -18.03  -34.84    0.55

DOCKED: MODEL       65
DOCKED: USER    Run = 65
DOCKED: USER    DPF = C:/Users/georg/Desktop/Dock/executables_autodock_tools/receptor.dpf
DOCKED: USER  
DOCKED: USER    Estimated Free Energy of Binding    =  -20.19 kcal/mol  [=(1)+(2)+(3)-(4)]
DOCKED: USER    Estimated Inhibition Constant, Ki   =    1.59 fM (femtomolar)  [Temperature = 298.15 K]
DOCKED: USER    
DOCKED: USER    (1) Final Intermolecular Energy     =  -22.57 kcal/mol
DOCKED: USER        vdW + Hbond + desolv Energy     =  -18.57 kcal/mol
DOCKED: USER        Electrostatic Energy            =   -4.00 kcal/mol
DOCKED: USER    (2) Final Total Internal Energy     =   -0.47 kcal/mol
DOCKED: USER    (3) Torsional Free Energy           =   +2.39 kcal/mol
DOCKED: USER    (4) Unbound System's Energy  [=(2)] =   -0.47 kcal/mol
DOCKED: USER    
DOCKED: USER    
DOCKED: USER    NEWDPF move ligand.pdbqt
DOCKED: USER    NEWDPF about 54.495000 78.699000 10.493000
DOCKED: USER    NEWDPF tran0 54.329991 78.909091 10.664678
DOCKED: USER    NEWDPF quaternion0 -0.010648 -0.020865 0.019897 -0.999528
DOCKED: USER    NEWDPF axisangle0 -0.346442 -0.678888 0.647370 -3.522496
DOCKED: USER    NEWDPF quat0 -0.346442 -0.678888 0.647370 -3.522496
DOCKED: USER    NEWDPF dihe0 1.58 -30.51 47.12 178.95 -18.22 -18.03 -34.84 0.55 
DOCKED: USER  keepresnum = 1 
DOCKED: USER  
DOCKED: REMARK  8 active torsions:
DOCKED: REMARK  status: ('A' for Active; 'I' for Inactive)
DOCKED: REMARK    1  A    between atoms: C2A_3624  and  CAA_3628 
DOCKED: REMARK    2  A    between atoms: CAA_3628  and  CBA_3629 
DOCKED: REMARK    3  A    between atoms: CBA_3629  and  CGA_3630 
DOCKED: REMARK    4  A    between atoms: C3B_3635  and  CAB_3638 
DOCKED: REMARK    5  A    between atoms: C3C_3642  and  CAC_3645 
DOCKED: REMARK    6  A    between atoms: C3D_3649  and  CAD_3652 
DOCKED: REMARK    7  A    between atoms: CAD_3652  and  CBD_3653 
DOCKED: REMARK    8  A    between atoms: CBD_3653  and  CGD_3654 
DOCKED: USER                              x       y       z     vdW  Elec       q    Type
DOCKED: USER                           _______ _______ _______ _____ _____    ______ ____
DOCKED: ROOT
DOCKED: ATOM      1  CHA HEM A1501      54.189  81.228  10.199 -0.28 +0.04    +0.038 A 
DOCKED: ATOM      2  CHB HEM A1501      54.986  78.679  14.200 -0.39 +0.02    +0.038 A 
DOCKED: ATOM      3  CHC HEM A1501      55.498  74.666  11.571 -0.39 +0.01    +0.038 A 
DOCKED: ATOM      4  CHD HEM A1501      54.634  77.206   7.569 -0.37 +0.03    +0.038 A 
DOCKED: ATOM      5  C1A HEM A1501      54.335  80.883  11.538 -0.23 +0.07    +0.079 A 
DOCKED: ATOM      6  C2A HEM A1501      54.218  81.777  12.694 -0.34 -0.01    -0.006 A 
DOCKED: ATOM      7  C3A HEM A1501      54.444  81.051  13.779 -0.39 -0.00    -0.007 A 
DOCKED: ATOM      8  C4A HEM A1501      54.691  79.713  13.333 -0.32 +0.05    +0.079 A 
DOCKED: ATOM      9  CMA HEM A1501      54.427  81.512  15.205 -0.48 +0.02    +0.032 C 
DOCKED: ATOM     10  C1B HEM A1501      55.227  77.364  13.846 -0.33 +0.03    +0.079 A 
DOCKED: ATOM     11  C2B HEM A1501      55.555  76.311  14.799 -0.41 -0.00    -0.003 A 
DOCKED: ATOM     12  C3B HEM A1501      55.713  75.188  14.052 -0.38 +0.01    +0.015 A 
DOCKED: ATOM     13  C4B HEM A1501      55.458  75.552  12.661 -0.32 +0.03    +0.083 A 
DOCKED: ATOM     14  CMB HEM A1501      55.681  76.506  16.285 -0.54 +0.01    +0.033 C 
DOCKED: ATOM     15  C1C HEM A1501      55.285  74.943  10.248 -0.36 +0.03    +0.079 A 
DOCKED: ATOM     16  C2C HEM A1501      55.258  73.973   9.188 -0.46 -0.00    -0.003 A 
DOCKED: ATOM     17  C3C HEM A1501      54.999  74.663   8.048 -0.45 +0.01    +0.015 A 
DOCKED: ATOM     18  C4C HEM A1501      54.876  76.083   8.431 -0.35 +0.05    +0.083 A 
DOCKED: ATOM     19  CMC HEM A1501      55.485  72.490   9.401 -0.53 +0.01    +0.033 C 
DOCKED: ATOM     20  C1D HEM A1501      54.486  78.572   7.913 -0.32 +0.06    +0.079 A 
DOCKED: ATOM     21  C2D HEM A1501      54.240  79.632   6.983 -0.36 -0.01    -0.007 A 
DOCKED: ATOM     22  C3D HEM A1501      54.115  80.766   7.718 -0.35 -0.01    -0.006 A 
DOCKED: ATOM     23  C4D HEM A1501      54.279  80.395   9.110 -0.26 +0.08    +0.079 A 
DOCKED: ATOM     24  CMD HEM A1501      54.138  79.512   5.515 -0.48 +0.03    +0.032 C 
DOCKED: ATOM     25  NA  HEM A1501      54.596  79.611  11.977 -0.13 -0.18    -0.246 N 
DOCKED: ATOM     26  NB  HEM A1501      55.192  76.872  12.563 -0.14 -0.11    -0.246 N 
DOCKED: ATOM     27  NC  HEM A1501      55.030  76.180   9.753 -0.04 -0.12    -0.246 N 
DOCKED: ATOM     28  ND  HEM A1501      54.500  79.056   9.191 -0.18 -0.20    -0.246 N 
DOCKED: ATOM     29 FE   HEM A1501      54.820  77.923  10.850 -0.07 +0.00    +0.000 Fe
DOCKED: ENDROOT
DOCKED: BRANCH  22  30
DOCKED: ATOM     30  CAD HEM A1501      53.855  82.106   7.139 -0.44 +0.06    +0.039 C 
DOCKED: BRANCH  30  31
DOCKED: ATOM     31  CBD HEM A1501      52.685  82.086   6.156 -0.56 +0.14    +0.102 C 
DOCKED: BRANCH  31  32
DOCKED: ATOM     32  CGD HEM A1501      52.146  83.471   5.849 -0.64 +0.33    +0.186 C 
DOCKED: ATOM     33  O1D HEM A1501      51.069  83.438   5.214 -1.12 -1.27    -0.647 OA
DOCKED: ATOM     34  O2D HEM A1501      52.734  84.568   6.259 -1.08 -1.59    -0.647 OA
DOCKED: ENDBRANCH  31  32
DOCKED: ENDBRANCH  30  31
DOCKED: ENDBRANCH  22  30
DOCKED: BRANCH   6  35
DOCKED: ATOM     35  CAA HEM A1501      53.900  83.231  12.695 -0.43 +0.04    +0.039 C 
DOCKED: BRANCH  35  36
DOCKED: ATOM     36  CBA HEM A1501      52.438  83.485  13.007 -0.51 +0.12    +0.102 C 
DOCKED: BRANCH  36  37
DOCKED: ATOM     37  CGA HEM A1501      52.146  84.864  13.532 -0.49 +0.26    +0.186 C 
DOCKED: ATOM     38  O1A HEM A1501      53.101  85.664  13.663 -0.48 -1.15    -0.647 OA
DOCKED: ATOM     39  O2A HEM A1501      50.960  85.169  13.772 -0.75 -0.89    -0.647 OA
DOCKED: ENDBRANCH  36  37
DOCKED: ENDBRANCH  35  36
DOCKED: ENDBRANCH   6  35
DOCKED: BRANCH  17  40
DOCKED: ATOM     40  CAC HEM A1501      54.868  74.146   6.680 -0.59 +0.00    +0.001 C 
DOCKED: ATOM     41  CBC HEM A1501      53.796  74.252   5.881 -0.65 +0.00    +0.000 C 
DOCKED: ENDBRANCH  17  40
DOCKED: BRANCH  12  42
DOCKED: ATOM     42  CAB HEM A1501      56.063  73.802  14.438 -0.56 +0.00    +0.001 C 
DOCKED: ATOM     43  CBB HEM A1501      57.087  73.340  15.129 -0.61 +0.00    +0.000 C 
DOCKED: ENDBRANCH  12  42
DOCKED: TORSDOF 8
DOCKED: TER
DOCKED: ENDMDL
________________________________________________________________________________


	BEGINNING GENETIC ALGORITHM DOCKING 66 of 100
Run: 66 Seed: 1063325189 1808555978 [ Run 66 of 100 GA/GALS ]
Beginning LAMARCKIAN GENETIC ALGORITHM (LGA), with a maximum of 2500000 energy evaluations.

Final-Value: -23.353


	FINAL GENETIC ALGORITHM DOCKED STATE
	_______________________________________________


Detailed state:  trans 54.901 78.993 10.571 quatxyzw -0.180940 0.969116 -0.164807 -0.030232 center 54.495 78.699 10.493 ntor 8 10.0348 -74.5611 -148.0930 152.2359 -10.3157 10.4665 -161.0004 165.7402
State:	 54.901  78.993  10.571  -0.181  0.970 -0.165 -176.535     10.03  -74.56 -148.09  152.24  -10.32   10.47 -161.00  165.74

DOCKED: MODEL       66
DOCKED: USER    Run = 66
DOCKED: USER    DPF = C:/Users/georg/Desktop/Dock/executables_autodock_tools/receptor.dpf
DOCKED: USER  
DOCKED: USER    Estimated Free Energy of Binding    =  -20.36 kcal/mol  [=(1)+(2)+(3)-(4)]
DOCKED: USER    Estimated Inhibition Constant, Ki   =    1.20 fM (femtomolar)  [Temperature = 298.15 K]
DOCKED: USER    
DOCKED: USER    (1) Final Intermolecular Energy     =  -22.74 kcal/mol
DOCKED: USER        vdW + Hbond + desolv Energy     =  -18.47 kcal/mol
DOCKED: USER        Electrostatic Energy            =   -4.27 kcal/mol
DOCKED: USER    (2) Final Total Internal Energy     =   -0.61 kcal/mol
DOCKED: USER    (3) Torsional Free Energy           =   +2.39 kcal/mol
DOCKED: USER    (4) Unbound System's Energy  [=(2)] =   -0.61 kcal/mol
DOCKED: USER    
DOCKED: USER    
DOCKED: USER    NEWDPF move ligand.pdbqt
DOCKED: USER    NEWDPF about 54.495000 78.699000 10.493000
DOCKED: USER    NEWDPF tran0 54.900966 78.992918 10.571307
DOCKED: USER    NEWDPF quaternion0 -0.180940 0.969116 -0.164807 -0.030232
DOCKED: USER    NEWDPF axisangle0 -0.181023 0.969559 -0.164882 -176.535093
DOCKED: USER    NEWDPF quat0 -0.181023 0.969559 -0.164882 -176.535093
DOCKED: USER    NEWDPF dihe0 10.03 -74.56 -148.09 152.24 -10.32 10.47 -161.00 165.74 
DOCKED: USER  keepresnum = 1 
DOCKED: USER  
DOCKED: REMARK  8 active torsions:
DOCKED: REMARK  status: ('A' for Active; 'I' for Inactive)
DOCKED: REMARK    1  A    between atoms: C2A_3624  and  CAA_3628 
DOCKED: REMARK    2  A    between atoms: CAA_3628  and  CBA_3629 
DOCKED: REMARK    3  A    between atoms: CBA_3629  and  CGA_3630 
DOCKED: REMARK    4  A    between atoms: C3B_3635  and  CAB_3638 
DOCKED: REMARK    5  A    between atoms: C3C_3642  and  CAC_3645 
DOCKED: REMARK    6  A    between atoms: C3D_3649  and  CAD_3652 
DOCKED: REMARK    7  A    between atoms: CAD_3652  and  CBD_3653 
DOCKED: REMARK    8  A    between atoms: CBD_3653  and  CGD_3654 
DOCKED: USER                              x       y       z     vdW  Elec       q    Type
DOCKED: USER                           _______ _______ _______ _____ _____    ______ ____
DOCKED: ROOT
DOCKED: ATOM      1  CHA HEM A1501      54.120  81.197  10.190 -0.29 +0.04    +0.038 A 
DOCKED: ATOM      2  CHB HEM A1501      54.690  77.334   7.380 -0.37 +0.03    +0.038 A 
DOCKED: ATOM      3  CHC HEM A1501      55.495  74.594  11.269 -0.40 +0.01    +0.038 A 
DOCKED: ATOM      4  CHD HEM A1501      54.990  78.475  14.079 -0.39 +0.02    +0.038 A 
DOCKED: ATOM      5  C1A HEM A1501      54.232  80.386   9.065 -0.27 +0.08    +0.079 A 
DOCKED: ATOM      6  C2A HEM A1501      54.104  80.803   7.665 -0.35 -0.01    -0.006 A 
DOCKED: ATOM      7  C3A HEM A1501      54.263  79.721   6.916 -0.36 -0.01    -0.007 A 
DOCKED: ATOM      8  C4A HEM A1501      54.498  78.631   7.813 -0.31 +0.06    +0.079 A 
DOCKED: ATOM      9  CMA HEM A1501      54.230  79.635   5.420 -0.49 +0.03    +0.032 C 
DOCKED: ATOM     10  C1B HEM A1501      54.930  76.235   8.184 -0.34 +0.05    +0.079 A 
DOCKED: ATOM     11  C2B HEM A1501      55.107  74.879   7.677 -0.47 -0.00    -0.003 A 
DOCKED: ATOM     12  C3B HEM A1501      55.317  74.110   8.777 -0.44 +0.01    +0.015 A 
DOCKED: ATOM     13  C4B HEM A1501      55.294  74.997   9.937 -0.36 +0.03    +0.083 A 
DOCKED: ATOM     14  CMB HEM A1501      55.047  74.489   6.226 -0.58 +0.02    +0.033 C 
DOCKED: ATOM     15  C1C HEM A1501      55.472  75.367  12.398 -0.33 +0.03    +0.079 A 
DOCKED: ATOM     16  C2C HEM A1501      55.769  74.907  13.727 -0.41 -0.00    -0.003 A 
DOCKED: ATOM     17  C3C HEM A1501      55.650  75.989  14.538 -0.38 +0.01    +0.015 A 
DOCKED: ATOM     18  C4C HEM A1501      55.264  77.124  13.677 -0.32 +0.04    +0.083 A 
DOCKED: ATOM     19  CMC HEM A1501      56.135  73.474  14.058 -0.54 +0.01    +0.033 C 
DOCKED: ATOM     20  C1D HEM A1501      54.643  79.586  13.271 -0.32 +0.05    +0.079 A 
DOCKED: ATOM     21  C2D HEM A1501      54.392  80.909  13.758 -0.40 -0.00    -0.007 A 
DOCKED: ATOM     22  C3D HEM A1501      54.146  81.679  12.667 -0.35 -0.01    -0.006 A 
DOCKED: ATOM     23  C4D HEM A1501      54.254  80.820  11.503 -0.22 +0.07    +0.079 A 
DOCKED: ATOM     24  CMD HEM A1501      54.403  81.348  15.168 -0.46 +0.02    +0.032 C 
DOCKED: ATOM     25  NA  HEM A1501      54.506  79.045   9.113 -0.18 -0.20    -0.246 N 
DOCKED: ATOM     26  NB  HEM A1501      55.036  76.265   9.554 -0.12 -0.12    -0.246 N 
DOCKED: ATOM     27  NC  HEM A1501      55.201  76.695  12.415 -0.11 -0.11    -0.246 N 
DOCKED: ATOM     28  ND  HEM A1501      54.560  79.559  11.907 -0.11 -0.18    -0.246 N 
DOCKED: ATOM     29 FE   HEM A1501      54.835  77.896  10.769 -0.07 +0.00    +0.000 Fe
DOCKED: ENDROOT
DOCKED: BRANCH  22  30
DOCKED: ATOM     30  CAD HEM A1501      53.832  83.126  12.727 -0.44 +0.04    +0.039 C 
DOCKED: BRANCH  30  31
DOCKED: ATOM     31  CBD HEM A1501      52.393  83.380  13.174 -0.51 +0.11    +0.102 C 
DOCKED: BRANCH  31  32
DOCKED: ATOM     32  CGD HEM A1501      52.104  84.846  13.437 -0.49 +0.26    +0.186 C 
DOCKED: ATOM     33  O1D HEM A1501      53.123  85.564  13.332 -0.38 -1.26    -0.647 OA
DOCKED: ATOM     34  O2D HEM A1501      50.901  85.298  13.693 -0.90 -0.91    -0.647 OA
DOCKED: ENDBRANCH  31  32
DOCKED: ENDBRANCH  30  31
DOCKED: ENDBRANCH  22  30
DOCKED: BRANCH   6  35
DOCKED: ATOM     35  CAA HEM A1501      53.852  82.172   7.139 -0.44 +0.06    +0.039 C 
DOCKED: BRANCH  35  36
DOCKED: ATOM     36  CBA HEM A1501      52.379  82.404   6.863 -0.57 +0.16    +0.102 C 
DOCKED: BRANCH  36  37
DOCKED: ATOM     37  CGA HEM A1501      52.074  83.713   6.186 -0.64 +0.36    +0.186 C 
DOCKED: ATOM     38  O1A HEM A1501      52.866  84.668   6.356 -1.09 -1.71    -0.647 OA
DOCKED: ATOM     39  O2A HEM A1501      51.071  83.778   5.447 -1.06 -1.34    -0.647 OA
DOCKED: ENDBRANCH  36  37
DOCKED: ENDBRANCH  35  36
DOCKED: ENDBRANCH   6  35
DOCKED: BRANCH  17  40
DOCKED: ATOM     40  CAC HEM A1501      55.846  76.063  15.991 -0.56 +0.00    +0.001 C 
DOCKED: ATOM     41  CBC HEM A1501      56.610  76.945  16.655 -0.59 +0.00    +0.000 C 
DOCKED: ENDBRANCH  17  40
DOCKED: BRANCH  12  42
DOCKED: ATOM     42  CAB HEM A1501      55.548  72.654   8.919 -0.52 +0.00    +0.001 C 
DOCKED: ATOM     43  CBB HEM A1501      54.713  71.683   9.230 -0.55 +0.00    +0.000 C 
DOCKED: ENDBRANCH  12  42
DOCKED: TORSDOF 8
DOCKED: TER
DOCKED: ENDMDL
________________________________________________________________________________


	BEGINNING GENETIC ALGORITHM DOCKING 67 of 100
Run: 67 Seed: 1762214793 649443993 [ Run 67 of 100 GA/GALS ]
Beginning LAMARCKIAN GENETIC ALGORITHM (LGA), with a maximum of 2500000 energy evaluations.

Final-Value: -23.536


	FINAL GENETIC ALGORITHM DOCKED STATE
	_______________________________________________


Detailed state:  trans 54.979 78.949 10.885 quatxyzw 0.185051 -0.971334 0.148812 0.011003 center 54.495 78.699 10.493 ntor 8 139.5242 -83.2438 -112.8684 176.1430 14.3505 6.5693 179.7428 144.1497
State:	 54.979  78.949  10.885   0.185 -0.971  0.149 178.739    139.52  -83.24 -112.87  176.14   14.35    6.57  179.74  144.15

DOCKED: MODEL       67
DOCKED: USER    Run = 67
DOCKED: USER    DPF = C:/Users/georg/Desktop/Dock/executables_autodock_tools/receptor.dpf
DOCKED: USER  
DOCKED: USER    Estimated Free Energy of Binding    =  -20.62 kcal/mol  [=(1)+(2)+(3)-(4)]
DOCKED: USER    Estimated Inhibition Constant, Ki   =  772.98 aM (attomolar)  [Temperature = 298.15 K]
DOCKED: USER    
DOCKED: USER    (1) Final Intermolecular Energy     =  -23.00 kcal/mol
DOCKED: USER        vdW + Hbond + desolv Energy     =  -18.49 kcal/mol
DOCKED: USER        Electrostatic Energy            =   -4.51 kcal/mol
DOCKED: USER    (2) Final Total Internal Energy     =   -0.53 kcal/mol
DOCKED: USER    (3) Torsional Free Energy           =   +2.39 kcal/mol
DOCKED: USER    (4) Unbound System's Energy  [=(2)] =   -0.53 kcal/mol
DOCKED: USER    
DOCKED: USER    
DOCKED: USER    NEWDPF move ligand.pdbqt
DOCKED: USER    NEWDPF about 54.495000 78.699000 10.493000
DOCKED: USER    NEWDPF tran0 54.978785 78.949482 10.885310
DOCKED: USER    NEWDPF quaternion0 0.185051 -0.971334 0.148812 0.011003
DOCKED: USER    NEWDPF axisangle0 0.185062 -0.971393 0.148822 178.739075
DOCKED: USER    NEWDPF quat0 0.185062 -0.971393 0.148822 178.739075
DOCKED: USER    NEWDPF dihe0 139.52 -83.24 -112.87 176.14 14.35 6.57 179.74 144.15 
DOCKED: USER  keepresnum = 1 
DOCKED: USER  
DOCKED: REMARK  8 active torsions:
DOCKED: REMARK  status: ('A' for Active; 'I' for Inactive)
DOCKED: REMARK    1  A    between atoms: C2A_3624  and  CAA_3628 
DOCKED: REMARK    2  A    between atoms: CAA_3628  and  CBA_3629 
DOCKED: REMARK    3  A    between atoms: CBA_3629  and  CGA_3630 
DOCKED: REMARK    4  A    between atoms: C3B_3635  and  CAB_3638 
DOCKED: REMARK    5  A    between atoms: C3C_3642  and  CAC_3645 
DOCKED: REMARK    6  A    between atoms: C3D_3649  and  CAD_3652 
DOCKED: REMARK    7  A    between atoms: CAD_3652  and  CBD_3653 
DOCKED: REMARK    8  A    between atoms: CBD_3653  and  CGD_3654 
DOCKED: USER                              x       y       z     vdW  Elec       q    Type
DOCKED: USER                           _______ _______ _______ _____ _____    ______ ____
DOCKED: ROOT
DOCKED: ATOM      1  CHA HEM A1501      54.179  81.160  10.593 -0.27 +0.04    +0.038 A 
DOCKED: ATOM      2  CHB HEM A1501      54.628  77.369   7.667 -0.37 +0.03    +0.038 A 
DOCKED: ATOM      3  CHC HEM A1501      55.609  74.536  11.447 -0.40 +0.01    +0.038 A 
DOCKED: ATOM      4  CHD HEM A1501      55.225  78.346  14.371 -0.39 +0.01    +0.038 A 
DOCKED: ATOM      5  C1A HEM A1501      54.241  80.378   9.445 -0.24 +0.08    +0.079 A 
DOCKED: ATOM      6  C2A HEM A1501      54.051  80.828   8.062 -0.35 -0.01    -0.006 A 
DOCKED: ATOM      7  C3A HEM A1501      54.177  79.765   7.281 -0.35 -0.01    -0.007 A 
DOCKED: ATOM      8  C4A HEM A1501      54.454  78.655   8.140 -0.31 +0.06    +0.079 A 
DOCKED: ATOM      9  CMA HEM A1501      54.078  79.716   5.787 -0.46 +0.03    +0.032 C 
DOCKED: ATOM     10  C1B HEM A1501      54.905  76.251   8.432 -0.34 +0.04    +0.079 A 
DOCKED: ATOM     11  C2B HEM A1501      55.060  74.908   7.885 -0.46 -0.00    -0.003 A 
DOCKED: ATOM     12  C3B HEM A1501      55.321  74.113   8.955 -0.44 +0.01    +0.015 A 
DOCKED: ATOM     13  C4B HEM A1501      55.348  74.971  10.136 -0.36 +0.03    +0.083 A 
DOCKED: ATOM     14  CMB HEM A1501      54.936  74.554   6.428 -0.58 +0.02    +0.033 C 
DOCKED: ATOM     15  C1C HEM A1501      55.635  75.281  12.595 -0.34 +0.03    +0.079 A 
DOCKED: ATOM     16  C2C HEM A1501      55.992  74.789  13.898 -0.43 -0.00    -0.003 A 
DOCKED: ATOM     17  C3C HEM A1501      55.908  75.851  14.740 -0.40 +0.01    +0.015 A 
DOCKED: ATOM     18  C4C HEM A1501      55.482  77.006  13.925 -0.32 +0.03    +0.083 A 
DOCKED: ATOM     19  CMC HEM A1501      56.374  73.350  14.177 -0.56 +0.01    +0.033 C 
DOCKED: ATOM     20  C1D HEM A1501      54.841  79.476  13.608 -0.34 +0.04    +0.079 A 
DOCKED: ATOM     21  C2D HEM A1501      54.610  80.786  14.138 -0.40 -0.00    -0.007 A 
DOCKED: ATOM     22  C3D HEM A1501      54.314  81.581  13.078 -0.35 -0.00    -0.006 A 
DOCKED: ATOM     23  C4D HEM A1501      54.372  80.752  11.890 -0.24 +0.07    +0.079 A 
DOCKED: ATOM     24  CMD HEM A1501      54.683  81.190  15.556 -0.45 +0.01    +0.032 C 
DOCKED: ATOM     25  NA  HEM A1501      54.519  79.036   9.447 -0.15 -0.20    -0.246 N 
DOCKED: ATOM     26  NB  HEM A1501      55.072  76.247   9.796 -0.04 -0.12    -0.246 N 
DOCKED: ATOM     27  NC  HEM A1501      55.363  76.608  12.657 -0.17 -0.11    -0.246 N 
DOCKED: ATOM     28  ND  HEM A1501      54.697  79.482  12.249 -0.14 -0.17    -0.246 N 
DOCKED: ATOM     29 FE   HEM A1501      54.923  77.848  11.059 -0.07 +0.00    +0.000 Fe
DOCKED: ENDROOT
DOCKED: BRANCH  22  30
DOCKED: ATOM     30  CAD HEM A1501      54.001  83.026  13.187 -0.41 +0.04    +0.039 C 
DOCKED: BRANCH  30  31
DOCKED: ATOM     31  CBD HEM A1501      52.496  83.282  13.239 -0.51 +0.11    +0.102 C 
DOCKED: BRANCH  31  32
DOCKED: ATOM     32  CGD HEM A1501      52.130  84.727  12.954 -0.45 +0.27    +0.186 C 
DOCKED: ATOM     33  O1D HEM A1501      52.938  85.284  12.179 -0.59 -1.43    -0.647 OA
DOCKED: ATOM     34  O2D HEM A1501      51.053  85.294  13.437 -0.77 -0.94    -0.647 OA
DOCKED: ENDBRANCH  31  32
DOCKED: ENDBRANCH  30  31
DOCKED: ENDBRANCH  22  30
DOCKED: BRANCH   6  35
DOCKED: ATOM     35  CAA HEM A1501      53.774  82.210   7.582 -0.42 +0.06    +0.039 C 
DOCKED: BRANCH  35  36
DOCKED: ATOM     36  CBA HEM A1501      52.429  82.302   6.888 -0.56 +0.16    +0.102 C 
DOCKED: BRANCH  36  37
DOCKED: ATOM     37  CGA HEM A1501      52.115  83.661   6.325 -0.62 +0.36    +0.186 C 
DOCKED: ATOM     38  O1A HEM A1501      52.937  84.587   6.513 -1.17 -1.72    -0.647 OA
DOCKED: ATOM     39  O2A HEM A1501      51.071  83.798   5.654 -0.97 -1.36    -0.647 OA
DOCKED: ENDBRANCH  36  37
DOCKED: ENDBRANCH  35  36
DOCKED: ENDBRANCH   6  35
DOCKED: BRANCH  17  40
DOCKED: ATOM     40  CAC HEM A1501      56.168  75.890  16.184 -0.56 +0.00    +0.001 C 
DOCKED: ATOM     41  CBC HEM A1501      55.253  75.887  17.166 -0.67 +0.00    +0.000 C 
DOCKED: ENDBRANCH  17  40
DOCKED: BRANCH  12  42
DOCKED: ATOM     42  CAB HEM A1501      55.560  72.654   9.050 -0.53 +0.00    +0.001 C 
DOCKED: ATOM     43  CBB HEM A1501      54.790  71.691   9.517 -0.54 +0.00    +0.000 C 
DOCKED: ENDBRANCH  12  42
DOCKED: TORSDOF 8
DOCKED: TER
DOCKED: ENDMDL
________________________________________________________________________________


	BEGINNING GENETIC ALGORITHM DOCKING 68 of 100
Run: 68 Seed: 2060974226 887727182 [ Run 68 of 100 GA/GALS ]
Beginning LAMARCKIAN GENETIC ALGORITHM (LGA), with a maximum of 2500000 energy evaluations.

Final-Value: -23.462


	FINAL GENETIC ALGORITHM DOCKED STATE
	_______________________________________________


Detailed state:  trans 54.937 78.788 10.667 quatxyzw 0.161593 -0.976165 0.144876 -0.001124 center 54.495 78.699 10.493 ntor 8 126.1685 50.8341 -119.7899 147.6085 10.8791 16.2773 180.0000 157.1800
State:	 54.937  78.788  10.667   0.162 -0.976  0.145 -179.871    126.17   50.83 -119.79  147.61   10.88   16.28  180.00  157.18

DOCKED: MODEL       68
DOCKED: USER    Run = 68
DOCKED: USER    DPF = C:/Users/georg/Desktop/Dock/executables_autodock_tools/receptor.dpf
DOCKED: USER  
DOCKED: USER    Estimated Free Energy of Binding    =  -20.54 kcal/mol  [=(1)+(2)+(3)-(4)]
DOCKED: USER    Estimated Inhibition Constant, Ki   =  882.55 aM (attomolar)  [Temperature = 298.15 K]
DOCKED: USER    
DOCKED: USER    (1) Final Intermolecular Energy     =  -22.92 kcal/mol
DOCKED: USER        vdW + Hbond + desolv Energy     =  -18.40 kcal/mol
DOCKED: USER        Electrostatic Energy            =   -4.52 kcal/mol
DOCKED: USER    (2) Final Total Internal Energy     =   -0.54 kcal/mol
DOCKED: USER    (3) Torsional Free Energy           =   +2.39 kcal/mol
DOCKED: USER    (4) Unbound System's Energy  [=(2)] =   -0.54 kcal/mol
DOCKED: USER    
DOCKED: USER    
DOCKED: USER    NEWDPF move ligand.pdbqt
DOCKED: USER    NEWDPF about 54.495000 78.699000 10.493000
DOCKED: USER    NEWDPF tran0 54.937363 78.788016 10.666873
DOCKED: USER    NEWDPF quaternion0 0.161593 -0.976165 0.144876 -0.001124
DOCKED: USER    NEWDPF axisangle0 0.161593 -0.976165 0.144876 -179.871207
DOCKED: USER    NEWDPF quat0 0.161593 -0.976165 0.144876 -179.871207
DOCKED: USER    NEWDPF dihe0 126.17 50.83 -119.79 147.61 10.88 16.28 180.00 157.18 
DOCKED: USER  keepresnum = 1 
DOCKED: USER  
DOCKED: REMARK  8 active torsions:
DOCKED: REMARK  status: ('A' for Active; 'I' for Inactive)
DOCKED: REMARK    1  A    between atoms: C2A_3624  and  CAA_3628 
DOCKED: REMARK    2  A    between atoms: CAA_3628  and  CBA_3629 
DOCKED: REMARK    3  A    between atoms: CBA_3629  and  CGA_3630 
DOCKED: REMARK    4  A    between atoms: C3B_3635  and  CAB_3638 
DOCKED: REMARK    5  A    between atoms: C3C_3642  and  CAC_3645 
DOCKED: REMARK    6  A    between atoms: C3D_3649  and  CAD_3652 
DOCKED: REMARK    7  A    between atoms: CAD_3652  and  CBD_3653 
DOCKED: REMARK    8  A    between atoms: CBD_3653  and  CGD_3654 
DOCKED: USER                              x       y       z     vdW  Elec       q    Type
DOCKED: USER                           _______ _______ _______ _____ _____    ______ ____
DOCKED: ROOT
DOCKED: ATOM      1  CHA HEM A1501      54.246  81.038  10.400 -0.26 +0.04    +0.038 A 
DOCKED: ATOM      2  CHB HEM A1501      54.448  77.245   7.448 -0.40 +0.03    +0.038 A 
DOCKED: ATOM      3  CHC HEM A1501      55.352  74.345  11.197 -0.40 +0.01    +0.038 A 
DOCKED: ATOM      4  CHD HEM A1501      55.215  78.154  14.145 -0.38 +0.02    +0.038 A 
DOCKED: ATOM      5  C1A HEM A1501      54.248  80.260   9.247 -0.25 +0.08    +0.079 A 
DOCKED: ATOM      6  C2A HEM A1501      54.056  80.727   7.870 -0.35 -0.01    -0.006 A 
DOCKED: ATOM      7  C3A HEM A1501      54.114  79.664   7.082 -0.36 -0.01    -0.007 A 
DOCKED: ATOM      8  C4A HEM A1501      54.349  78.535   7.930 -0.33 +0.06    +0.079 A 
DOCKED: ATOM      9  CMA HEM A1501      53.985  79.628   5.589 -0.47 +0.03    +0.032 C 
DOCKED: ATOM     10  C1B HEM A1501      54.682  76.110   8.202 -0.36 +0.05    +0.079 A 
DOCKED: ATOM     11  C2B HEM A1501      54.759  74.765   7.647 -0.47 -0.00    -0.003 A 
DOCKED: ATOM     12  C3B HEM A1501      54.998  73.951   8.708 -0.45 +0.01    +0.015 A 
DOCKED: ATOM     13  C4B HEM A1501      55.090  74.800   9.893 -0.37 +0.03    +0.083 A 
DOCKED: ATOM     14  CMB HEM A1501      54.591  74.425   6.191 -0.59 +0.02    +0.033 C 
DOCKED: ATOM     15  C1C HEM A1501      55.437  75.081  12.347 -0.35 +0.03    +0.079 A 
DOCKED: ATOM     16  C2C HEM A1501      55.792  74.565  13.641 -0.43 -0.00    -0.003 A 
DOCKED: ATOM     17  C3C HEM A1501      55.776  75.625  14.490 -0.38 +0.01    +0.015 A 
DOCKED: ATOM     18  C4C HEM A1501      55.396  76.804  13.688 -0.31 +0.03    +0.083 A 
DOCKED: ATOM     19  CMC HEM A1501      56.105  73.106  13.906 -0.54 +0.01    +0.033 C 
DOCKED: ATOM     20  C1D HEM A1501      54.876  79.306  13.394 -0.32 +0.04    +0.079 A 
DOCKED: ATOM     21  C2D HEM A1501      54.721  80.622  13.934 -0.38 -0.00    -0.007 A 
DOCKED: ATOM     22  C3D HEM A1501      54.447  81.438  12.884 -0.32 -0.00    -0.006 A 
DOCKED: ATOM     23  C4D HEM A1501      54.441  80.614  11.691 -0.22 +0.07    +0.079 A 
DOCKED: ATOM     24  CMD HEM A1501      54.840  81.015  15.353 -0.42 +0.01    +0.032 C 
DOCKED: ATOM     25  NA  HEM A1501      54.457  78.906   9.238 -0.17 -0.20    -0.246 N 
DOCKED: ATOM     26  NB  HEM A1501      54.873  76.091   9.564 -0.09 -0.12    -0.246 N 
DOCKED: ATOM     27  NC  HEM A1501      55.234  76.420  12.420 -0.15 -0.11    -0.246 N 
DOCKED: ATOM     28  ND  HEM A1501      54.708  79.326  12.038 -0.12 -0.17    -0.246 N 
DOCKED: ATOM     29 FE   HEM A1501      54.829  77.690  10.836 -0.07 +0.00    +0.000 Fe
DOCKED: ENDROOT
DOCKED: BRANCH  22  30
DOCKED: ATOM     30  CAD HEM A1501      54.210  82.896  13.005 -0.38 +0.04    +0.039 C 
DOCKED: BRANCH  30  31
DOCKED: ATOM     31  CBD HEM A1501      52.721  83.227  13.092 -0.51 +0.11    +0.102 C 
DOCKED: BRANCH  31  32
DOCKED: ATOM     32  CGD HEM A1501      52.431  84.705  12.904 -0.43 +0.28    +0.186 C 
DOCKED: ATOM     33  O1D HEM A1501      53.333  85.295  12.271 -0.60 -1.48    -0.647 OA
DOCKED: ATOM     34  O2D HEM A1501      51.325  85.269  13.322 -0.64 -0.97    -0.647 OA
DOCKED: ENDBRANCH  31  32
DOCKED: ENDBRANCH  30  31
DOCKED: ENDBRANCH  22  30
DOCKED: BRANCH   6  35
DOCKED: ATOM     35  CAA HEM A1501      53.841  82.123   7.401 -0.43 +0.06    +0.039 C 
DOCKED: BRANCH  35  36
DOCKED: ATOM     36  CBA HEM A1501      52.393  82.372   7.026 -0.56 +0.16    +0.102 C 
DOCKED: BRANCH  36  37
DOCKED: ATOM     37  CGA HEM A1501      52.158  83.655   6.277 -0.63 +0.36    +0.186 C 
DOCKED: ATOM     38  O1A HEM A1501      52.906  84.630   6.519 -1.14 -1.75    -0.647 OA
DOCKED: ATOM     39  O2A HEM A1501      51.259  83.681   5.412 -1.06 -1.28    -0.647 OA
DOCKED: ENDBRANCH  36  37
DOCKED: ENDBRANCH  35  36
DOCKED: ENDBRANCH   6  35
DOCKED: BRANCH  17  40
DOCKED: ATOM     40  CAC HEM A1501      56.064  75.643  15.929 -0.55 +0.00    +0.001 C 
DOCKED: ATOM     41  CBC HEM A1501      55.202  75.928  16.917 -0.64 +0.00    +0.000 C 
DOCKED: ENDBRANCH  17  40
DOCKED: BRANCH  12  42
DOCKED: ATOM     42  CAB HEM A1501      55.164  72.482   8.792 -0.56 +0.00    +0.001 C 
DOCKED: ATOM     43  CBB HEM A1501      55.587  71.617   7.892 -0.55 +0.00    +0.000 C 
DOCKED: ENDBRANCH  12  42
DOCKED: TORSDOF 8
DOCKED: TER
DOCKED: ENDMDL
________________________________________________________________________________


	BEGINNING GENETIC ALGORITHM DOCKING 69 of 100
Run: 69 Seed: 674720409 1788343836 [ Run 69 of 100 GA/GALS ]
Beginning LAMARCKIAN GENETIC ALGORITHM (LGA), with a maximum of 2500000 energy evaluations.

Final-Value: -23.149


	FINAL GENETIC ALGORITHM DOCKED STATE
	_______________________________________________


Detailed state:  trans 54.301 78.875 10.359 quatxyzw 0.024041 0.028423 -0.032905 0.998765 center 54.495 78.699 10.493 ntor 8 13.3068 -27.3654 -179.0028 147.6595 -7.2589 -15.8168 10.8909 19.1378
State:	 54.301  78.875  10.359   0.484  0.572 -0.662  5.696     13.31  -27.37 -179.00  147.66   -7.26  -15.82   10.89   19.14

DOCKED: MODEL       69
DOCKED: USER    Run = 69
DOCKED: USER    DPF = C:/Users/georg/Desktop/Dock/executables_autodock_tools/receptor.dpf
DOCKED: USER  
DOCKED: USER    Estimated Free Energy of Binding    =  -20.19 kcal/mol  [=(1)+(2)+(3)-(4)]
DOCKED: USER    Estimated Inhibition Constant, Ki   =    1.58 fM (femtomolar)  [Temperature = 298.15 K]
DOCKED: USER    
DOCKED: USER    (1) Final Intermolecular Energy     =  -22.58 kcal/mol
DOCKED: USER        vdW + Hbond + desolv Energy     =  -18.37 kcal/mol
DOCKED: USER        Electrostatic Energy            =   -4.21 kcal/mol
DOCKED: USER    (2) Final Total Internal Energy     =   -0.57 kcal/mol
DOCKED: USER    (3) Torsional Free Energy           =   +2.39 kcal/mol
DOCKED: USER    (4) Unbound System's Energy  [=(2)] =   -0.57 kcal/mol
DOCKED: USER    
DOCKED: USER    
DOCKED: USER    NEWDPF move ligand.pdbqt
DOCKED: USER    NEWDPF about 54.495000 78.699000 10.493000
DOCKED: USER    NEWDPF tran0 54.301474 78.875365 10.358978
DOCKED: USER    NEWDPF quaternion0 0.024041 0.028423 -0.032905 0.998765
DOCKED: USER    NEWDPF axisangle0 0.483881 0.572063 -0.662271 5.695789
DOCKED: USER    NEWDPF quat0 0.483881 0.572063 -0.662271 5.695789
DOCKED: USER    NEWDPF dihe0 13.31 -27.37 -179.00 147.66 -7.26 -15.82 10.89 19.14 
DOCKED: USER  keepresnum = 1 
DOCKED: USER  
DOCKED: REMARK  8 active torsions:
DOCKED: REMARK  status: ('A' for Active; 'I' for Inactive)
DOCKED: REMARK    1  A    between atoms: C2A_3624  and  CAA_3628 
DOCKED: REMARK    2  A    between atoms: CAA_3628  and  CBA_3629 
DOCKED: REMARK    3  A    between atoms: CBA_3629  and  CGA_3630 
DOCKED: REMARK    4  A    between atoms: C3B_3635  and  CAB_3638 
DOCKED: REMARK    5  A    between atoms: C3C_3642  and  CAC_3645 
DOCKED: REMARK    6  A    between atoms: C3D_3649  and  CAD_3652 
DOCKED: REMARK    7  A    between atoms: CAD_3652  and  CBD_3653 
DOCKED: REMARK    8  A    between atoms: CBD_3653  and  CGD_3654 
DOCKED: USER                              x       y       z     vdW  Elec       q    Type
DOCKED: USER                           _______ _______ _______ _____ _____    ______ ____
DOCKED: ROOT
DOCKED: ATOM      1  CHA HEM A1501      54.109  81.176   9.828 -0.30 +0.04    +0.038 A 
DOCKED: ATOM      2  CHB HEM A1501      54.908  78.757  13.909 -0.39 +0.02    +0.038 A 
DOCKED: ATOM      3  CHC HEM A1501      55.563  74.689  11.398 -0.40 +0.01    +0.038 A 
DOCKED: ATOM      4  CHD HEM A1501      54.697  77.098   7.316 -0.38 +0.03    +0.038 A 
DOCKED: ATOM      5  C1A HEM A1501      54.242  80.871  11.179 -0.21 +0.07    +0.079 A 
DOCKED: ATOM      6  C2A HEM A1501      54.084  81.793  12.308 -0.35 -0.01    -0.006 A 
DOCKED: ATOM      7  C3A HEM A1501      54.312  81.102  13.415 -0.38 -0.00    -0.007 A 
DOCKED: ATOM      8  C4A HEM A1501      54.600  79.760  13.010 -0.29 +0.05    +0.079 A 
DOCKED: ATOM      9  CMA HEM A1501      54.261  81.601  14.827 -0.45 +0.02    +0.032 C 
DOCKED: ATOM     10  C1B HEM A1501      55.188  77.440  13.594 -0.32 +0.04    +0.079 A 
DOCKED: ATOM     11  C2B HEM A1501      55.527  76.422  14.580 -0.40 -0.00    -0.003 A 
DOCKED: ATOM     12  C3B HEM A1501      55.725  75.283  13.867 -0.39 +0.01    +0.015 A 
DOCKED: ATOM     13  C4B HEM A1501      55.483  75.604  12.463 -0.32 +0.03    +0.083 A 
DOCKED: ATOM     14  CMB HEM A1501      55.624  76.660  16.062 -0.52 +0.01    +0.033 C 
DOCKED: ATOM     15  C1C HEM A1501      55.364  74.926  10.064 -0.36 +0.03    +0.079 A 
DOCKED: ATOM     16  C2C HEM A1501      55.378  73.927   9.031 -0.45 -0.00    -0.003 A 
DOCKED: ATOM     17  C3C HEM A1501      55.119  74.579   7.869 -0.45 +0.01    +0.015 A 
DOCKED: ATOM     18  C4C HEM A1501      54.954  76.006   8.212 -0.35 +0.05    +0.083 A 
DOCKED: ATOM     19  CMC HEM A1501      55.639  72.457   9.288 -0.49 +0.01    +0.033 C 
DOCKED: ATOM     20  C1D HEM A1501      54.510  78.469   7.620 -0.32 +0.06    +0.079 A 
DOCKED: ATOM     21  C2D HEM A1501      54.251  79.497   6.658 -0.37 -0.01    -0.007 A 
DOCKED: ATOM     22  C3D HEM A1501      54.085  80.647   7.360 -0.35 -0.01    -0.006 A 
DOCKED: ATOM     23  C4D HEM A1501      54.237  80.317   8.764 -0.28 +0.08    +0.079 A 
DOCKED: ATOM     24  CMD HEM A1501      54.175  79.335   5.192 -0.50 +0.03    +0.032 C 
DOCKED: ATOM     25  NA  HEM A1501      54.529  79.619  11.656 -0.10 -0.19    -0.246 N 
DOCKED: ATOM     26  NB  HEM A1501      55.185  76.913  12.325 -0.07 -0.11    -0.246 N 
DOCKED: ATOM     27  NC  HEM A1501      55.084  76.141   9.533 -0.16 -0.12    -0.246 N 
DOCKED: ATOM     28  ND  HEM A1501      54.491  78.987   8.885 -0.19 -0.20    -0.246 N 
DOCKED: ATOM     29 FE   HEM A1501      54.813  77.908  10.578 -0.07 +0.00    +0.000 Fe
DOCKED: ENDROOT
DOCKED: BRANCH  22  30
DOCKED: ATOM     30  CAD HEM A1501      53.801  81.963   6.741 -0.46 +0.05    +0.039 C 
DOCKED: BRANCH  30  31
DOCKED: ATOM     31  CBD HEM A1501      52.304  82.271   6.715 -0.58 +0.16    +0.102 C 
DOCKED: BRANCH  31  32
DOCKED: ATOM     32  CGD HEM A1501      51.995  83.665   6.202 -0.62 +0.36    +0.186 C 
DOCKED: ATOM     33  O1D HEM A1501      52.851  84.507   6.552 -1.15 -1.67    -0.647 OA
DOCKED: ATOM     34  O2D HEM A1501      50.965  83.926   5.435 -0.94 -1.38    -0.647 OA
DOCKED: ENDBRANCH  31  32
DOCKED: ENDBRANCH  30  31
DOCKED: ENDBRANCH  22  30
DOCKED: BRANCH   6  35
DOCKED: ATOM     35  CAA HEM A1501      53.729  83.238  12.265 -0.42 +0.05    +0.039 C 
DOCKED: BRANCH  35  36
DOCKED: ATOM     36  CBA HEM A1501      52.416  83.514  12.970 -0.51 +0.12    +0.102 C 
DOCKED: BRANCH  36  37
DOCKED: ATOM     37  CGA HEM A1501      52.221  84.949  13.378 -0.46 +0.27    +0.186 C 
DOCKED: ATOM     38  O1A HEM A1501      53.233  85.625  13.675 -0.48 -1.12    -0.647 OA
DOCKED: ATOM     39  O2A HEM A1501      51.065  85.419  13.358 -0.74 -0.99    -0.647 OA
DOCKED: ENDBRANCH  36  37
DOCKED: ENDBRANCH  35  36
DOCKED: ENDBRANCH   6  35
DOCKED: BRANCH  17  40
DOCKED: ATOM     40  CAC HEM A1501      55.023  74.023   6.514 -0.59 +0.00    +0.001 C 
DOCKED: ATOM     41  CBC HEM A1501      54.056  74.260   5.615 -0.65 +0.00    +0.000 C 
DOCKED: ENDBRANCH  17  40
DOCKED: BRANCH  12  42
DOCKED: ATOM     42  CAB HEM A1501      56.105  73.917  14.296 -0.55 +0.00    +0.001 C 
DOCKED: ATOM     43  CBB HEM A1501      57.098  73.507  15.059 -0.61 +0.00    +0.000 C 
DOCKED: ENDBRANCH  12  42
DOCKED: TORSDOF 8
DOCKED: TER
DOCKED: ENDMDL
________________________________________________________________________________


	BEGINNING GENETIC ALGORITHM DOCKING 70 of 100
Run: 70 Seed: 482421947 1263483867 [ Run 70 of 100 GA/GALS ]
Beginning LAMARCKIAN GENETIC ALGORITHM (LGA), with a maximum of 2500000 energy evaluations.

Final-Value: -23.436


	FINAL GENETIC ALGORITHM DOCKED STATE
	_______________________________________________


Detailed state:  trans 54.936 78.766 10.644 quatxyzw -0.158099 0.976062 -0.149328 -0.002802 center 54.495 78.699 10.493 ntor 8 126.0433 165.9468 -115.8005 142.9436 9.4005 17.2904 -178.8727 164.6101
State:	 54.936  78.766  10.644  -0.158  0.976 -0.149 -179.679    126.04  165.95 -115.80  142.94    9.40   17.29 -178.87  164.61

DOCKED: MODEL       70
DOCKED: USER    Run = 70
DOCKED: USER    DPF = C:/Users/georg/Desktop/Dock/executables_autodock_tools/receptor.dpf
DOCKED: USER  
DOCKED: USER    Estimated Free Energy of Binding    =  -20.51 kcal/mol  [=(1)+(2)+(3)-(4)]
DOCKED: USER    Estimated Inhibition Constant, Ki   =  925.83 aM (attomolar)  [Temperature = 298.15 K]
DOCKED: USER    
DOCKED: USER    (1) Final Intermolecular Energy     =  -22.90 kcal/mol
DOCKED: USER        vdW + Hbond + desolv Energy     =  -18.32 kcal/mol
DOCKED: USER        Electrostatic Energy            =   -4.58 kcal/mol
DOCKED: USER    (2) Final Total Internal Energy     =   -0.54 kcal/mol
DOCKED: USER    (3) Torsional Free Energy           =   +2.39 kcal/mol
DOCKED: USER    (4) Unbound System's Energy  [=(2)] =   -0.54 kcal/mol
DOCKED: USER    
DOCKED: USER    
DOCKED: USER    NEWDPF move ligand.pdbqt
DOCKED: USER    NEWDPF about 54.495000 78.699000 10.493000
DOCKED: USER    NEWDPF tran0 54.936492 78.766188 10.644247
DOCKED: USER    NEWDPF quaternion0 -0.158099 0.976062 -0.149328 -0.002802
DOCKED: USER    NEWDPF axisangle0 -0.158100 0.976066 -0.149329 -179.678912
DOCKED: USER    NEWDPF quat0 -0.158100 0.976066 -0.149329 -179.678912
DOCKED: USER    NEWDPF dihe0 126.04 165.95 -115.80 142.94 9.40 17.29 -178.87 164.61 
DOCKED: USER  keepresnum = 1 
DOCKED: USER  
DOCKED: REMARK  8 active torsions:
DOCKED: REMARK  status: ('A' for Active; 'I' for Inactive)
DOCKED: REMARK    1  A    between atoms: C2A_3624  and  CAA_3628 
DOCKED: REMARK    2  A    between atoms: CAA_3628  and  CBA_3629 
DOCKED: REMARK    3  A    between atoms: CBA_3629  and  CGA_3630 
DOCKED: REMARK    4  A    between atoms: C3B_3635  and  CAB_3638 
DOCKED: REMARK    5  A    between atoms: C3C_3642  and  CAC_3645 
DOCKED: REMARK    6  A    between atoms: C3D_3649  and  CAD_3652 
DOCKED: REMARK    7  A    between atoms: CAD_3652  and  CBD_3653 
DOCKED: REMARK    8  A    between atoms: CBD_3653  and  CGD_3654 
DOCKED: USER                              x       y       z     vdW  Elec       q    Type
DOCKED: USER                           _______ _______ _______ _____ _____    ______ ____
DOCKED: ROOT
DOCKED: ATOM      1  CHA HEM A1501      54.261  81.018  10.353 -0.26 +0.04    +0.038 A 
DOCKED: ATOM      2  CHB HEM A1501      54.471  77.202   7.432 -0.40 +0.03    +0.038 A 
DOCKED: ATOM      3  CHC HEM A1501      55.321  74.325  11.211 -0.40 +0.01    +0.038 A 
DOCKED: ATOM      4  CHD HEM A1501      55.176  78.156  14.130 -0.39 +0.02    +0.038 A 
DOCKED: ATOM      5  C1A HEM A1501      54.270  80.231   9.206 -0.25 +0.08    +0.079 A 
DOCKED: ATOM      6  C2A HEM A1501      54.094  80.689   7.824 -0.35 -0.01    -0.006 A 
DOCKED: ATOM      7  C3A HEM A1501      54.154  79.619   7.044 -0.36 -0.01    -0.007 A 
DOCKED: ATOM      8  C4A HEM A1501      54.374  78.496   7.904 -0.33 +0.06    +0.079 A 
DOCKED: ATOM      9  CMA HEM A1501      54.040  79.574   5.551 -0.47 +0.03    +0.032 C 
DOCKED: ATOM     10  C1B HEM A1501      54.691  76.071   8.197 -0.37 +0.05    +0.079 A 
DOCKED: ATOM     11  C2B HEM A1501      54.766  74.721   7.652 -0.47 -0.00    -0.003 A 
DOCKED: ATOM     12  C3B HEM A1501      54.989  73.915   8.722 -0.45 +0.01    +0.015 A 
DOCKED: ATOM     13  C4B HEM A1501      55.075  74.772   9.901 -0.37 +0.03    +0.083 A 
DOCKED: ATOM     14  CMB HEM A1501      54.610  74.372   6.198 -0.59 +0.02    +0.033 C 
DOCKED: ATOM     15  C1C HEM A1501      55.398  75.069  12.357 -0.35 +0.03    +0.079 A 
DOCKED: ATOM     16  C2C HEM A1501      55.737  74.561  13.658 -0.42 -0.00    -0.003 A 
DOCKED: ATOM     17  C3C HEM A1501      55.719  75.627  14.499 -0.38 +0.01    +0.015 A 
DOCKED: ATOM     18  C4C HEM A1501      55.353  76.803  13.684 -0.31 +0.03    +0.083 A 
DOCKED: ATOM     19  CMC HEM A1501      56.039  73.103  13.937 -0.54 +0.01    +0.033 C 
DOCKED: ATOM     20  C1D HEM A1501      54.850  79.305  13.367 -0.32 +0.04    +0.079 A 
DOCKED: ATOM     21  C2D HEM A1501      54.698  80.626  13.895 -0.38 -0.00    -0.007 A 
DOCKED: ATOM     22  C3D HEM A1501      54.439  81.435  12.836 -0.32 -0.00    -0.006 A 
DOCKED: ATOM     23  C4D HEM A1501      54.441  80.602  11.649 -0.22 +0.07    +0.079 A 
DOCKED: ATOM     24  CMD HEM A1501      54.805  81.028  15.312 -0.43 +0.01    +0.032 C 
DOCKED: ATOM     25  NA  HEM A1501      54.471  78.876   9.210 -0.17 -0.20    -0.246 N 
DOCKED: ATOM     26  NB  HEM A1501      54.868  76.061   9.560 -0.10 -0.12    -0.246 N 
DOCKED: ATOM     27  NC  HEM A1501      55.202  76.410  12.418 -0.14 -0.11    -0.246 N 
DOCKED: ATOM     28  ND  HEM A1501      54.696  79.316  12.009 -0.11 -0.17    -0.246 N 
DOCKED: ATOM     29 FE   HEM A1501      54.820  77.670  10.820 -0.07 +0.00    +0.000 Fe
DOCKED: ENDROOT
DOCKED: BRANCH  22  30
DOCKED: ATOM     30  CAD HEM A1501      54.209  82.896  12.944 -0.38 +0.04    +0.039 C 
DOCKED: BRANCH  30  31
DOCKED: ATOM     31  CBD HEM A1501      52.722  83.234  13.041 -0.51 +0.11    +0.102 C 
DOCKED: BRANCH  31  32
DOCKED: ATOM     32  CGD HEM A1501      52.440  84.716  12.876 -0.42 +0.28    +0.186 C 
DOCKED: ATOM     33  O1D HEM A1501      53.302  85.295  12.180 -0.59 -1.51    -0.647 OA
DOCKED: ATOM     34  O2D HEM A1501      51.375  85.294  13.373 -0.64 -0.98    -0.647 OA
DOCKED: ENDBRANCH  31  32
DOCKED: ENDBRANCH  30  31
DOCKED: ENDBRANCH  22  30
DOCKED: BRANCH   6  35
DOCKED: ATOM     35  CAA HEM A1501      53.892  82.083   7.343 -0.43 +0.06    +0.039 C 
DOCKED: BRANCH  35  36
DOCKED: ATOM     36  CBA HEM A1501      52.424  82.393   7.123 -0.56 +0.16    +0.102 C 
DOCKED: BRANCH  36  37
DOCKED: ATOM     37  CGA HEM A1501      52.166  83.655   6.348 -0.62 +0.36    +0.186 C 
DOCKED: ATOM     38  O1A HEM A1501      52.933  84.630   6.527 -1.14 -1.76    -0.647 OA
DOCKED: ATOM     39  O2A HEM A1501      51.228  83.665   5.524 -1.01 -1.30    -0.647 OA
DOCKED: ENDBRANCH  36  37
DOCKED: ENDBRANCH  35  36
DOCKED: ENDBRANCH   6  35
DOCKED: BRANCH  17  40
DOCKED: ATOM     40  CAC HEM A1501      55.992  75.654  15.941 -0.55 +0.00    +0.001 C 
DOCKED: ATOM     41  CBC HEM A1501      55.123  75.954  16.918 -0.63 +0.00    +0.000 C 
DOCKED: ENDBRANCH  17  40
DOCKED: BRANCH  12  42
DOCKED: ATOM     42  CAB HEM A1501      55.146  72.445   8.819 -0.56 +0.00    +0.001 C 
DOCKED: ATOM     43  CBB HEM A1501      55.944  71.719   9.576 -0.55 +0.00    +0.000 C 
DOCKED: ENDBRANCH  12  42
DOCKED: TORSDOF 8
DOCKED: TER
DOCKED: ENDMDL
________________________________________________________________________________


	BEGINNING GENETIC ALGORITHM DOCKING 71 of 100
Run: 71 Seed: 304694997 1199803945 [ Run 71 of 100 GA/GALS ]
Beginning LAMARCKIAN GENETIC ALGORITHM (LGA), with a maximum of 2500000 energy evaluations.

Final-Value: -23.451


	FINAL GENETIC ALGORITHM DOCKED STATE
	_______________________________________________


Detailed state:  trans 54.952 78.776 10.589 quatxyzw 0.167202 -0.971646 0.166714 0.012449 center 54.495 78.699 10.493 ntor 8 140.2077 -179.7617 -126.2576 144.1044 10.8467 9.9316 -162.0472 168.9485
State:	 54.952  78.776  10.589   0.167 -0.972  0.167 178.573    140.21 -179.76 -126.26  144.10   10.85    9.93 -162.05  168.95

DOCKED: MODEL       71
DOCKED: USER    Run = 71
DOCKED: USER    DPF = C:/Users/georg/Desktop/Dock/executables_autodock_tools/receptor.dpf
DOCKED: USER  
DOCKED: USER    Estimated Free Energy of Binding    =  -20.60 kcal/mol  [=(1)+(2)+(3)-(4)]
DOCKED: USER    Estimated Inhibition Constant, Ki   =  792.84 aM (attomolar)  [Temperature = 298.15 K]
DOCKED: USER    
DOCKED: USER    (1) Final Intermolecular Energy     =  -22.99 kcal/mol
DOCKED: USER        vdW + Hbond + desolv Energy     =  -18.51 kcal/mol
DOCKED: USER        Electrostatic Energy            =   -4.48 kcal/mol
DOCKED: USER    (2) Final Total Internal Energy     =   -0.46 kcal/mol
DOCKED: USER    (3) Torsional Free Energy           =   +2.39 kcal/mol
DOCKED: USER    (4) Unbound System's Energy  [=(2)] =   -0.46 kcal/mol
DOCKED: USER    
DOCKED: USER    
DOCKED: USER    NEWDPF move ligand.pdbqt
DOCKED: USER    NEWDPF about 54.495000 78.699000 10.493000
DOCKED: USER    NEWDPF tran0 54.951881 78.776461 10.588608
DOCKED: USER    NEWDPF quaternion0 0.167202 -0.971646 0.166714 0.012449
DOCKED: USER    NEWDPF axisangle0 0.167215 -0.971721 0.166727 178.573406
DOCKED: USER    NEWDPF quat0 0.167215 -0.971721 0.166727 178.573406
DOCKED: USER    NEWDPF dihe0 140.21 -179.76 -126.26 144.10 10.85 9.93 -162.05 168.95 
DOCKED: USER  keepresnum = 1 
DOCKED: USER  
DOCKED: REMARK  8 active torsions:
DOCKED: REMARK  status: ('A' for Active; 'I' for Inactive)
DOCKED: REMARK    1  A    between atoms: C2A_3624  and  CAA_3628 
DOCKED: REMARK    2  A    between atoms: CAA_3628  and  CBA_3629 
DOCKED: REMARK    3  A    between atoms: CBA_3629  and  CGA_3630 
DOCKED: REMARK    4  A    between atoms: C3B_3635  and  CAB_3638 
DOCKED: REMARK    5  A    between atoms: C3C_3642  and  CAC_3645 
DOCKED: REMARK    6  A    between atoms: C3D_3649  and  CAD_3652 
DOCKED: REMARK    7  A    between atoms: CAD_3652  and  CBD_3653 
DOCKED: REMARK    8  A    between atoms: CBD_3653  and  CGD_3654 
DOCKED: USER                              x       y       z     vdW  Elec       q    Type
DOCKED: USER                           _______ _______ _______ _____ _____    ______ ____
DOCKED: ROOT
DOCKED: ATOM      1  CHA HEM A1501      54.234  81.002  10.210 -0.26 +0.04    +0.038 A 
DOCKED: ATOM      2  CHB HEM A1501      54.591  77.100   7.420 -0.39 +0.03    +0.038 A 
DOCKED: ATOM      3  CHC HEM A1501      55.419  74.366  11.308 -0.40 +0.01    +0.038 A 
DOCKED: ATOM      4  CHD HEM A1501      55.128  78.284  14.096 -0.38 +0.02    +0.038 A 
DOCKED: ATOM      5  C1A HEM A1501      54.285  80.179   9.090 -0.26 +0.08    +0.079 A 
DOCKED: ATOM      6  C2A HEM A1501      54.131  80.589   7.690 -0.34 -0.01    -0.006 A 
DOCKED: ATOM      7  C3A HEM A1501      54.230  79.496   6.947 -0.36 -0.01    -0.007 A 
DOCKED: ATOM      8  C4A HEM A1501      54.456  78.407   7.847 -0.33 +0.06    +0.079 A 
DOCKED: ATOM      9  CMA HEM A1501      54.151  79.400   5.454 -0.48 +0.03    +0.032 C 
DOCKED: ATOM     10  C1B HEM A1501      54.819  76.000   8.226 -0.36 +0.04    +0.079 A 
DOCKED: ATOM     11  C2B HEM A1501      54.934  74.635   7.727 -0.47 -0.00    -0.003 A 
DOCKED: ATOM     12  C3B HEM A1501      55.152  73.868   8.827 -0.45 +0.01    +0.015 A 
DOCKED: ATOM     13  C4B HEM A1501      55.192  74.764   9.979 -0.38 +0.03    +0.083 A 
DOCKED: ATOM     14  CMB HEM A1501      54.819  74.236   6.281 -0.58 +0.02    +0.033 C 
DOCKED: ATOM     15  C1C HEM A1501      55.455  75.148  12.430 -0.34 +0.03    +0.079 A 
DOCKED: ATOM     16  C2C HEM A1501      55.776  74.689  13.754 -0.42 -0.00    -0.003 A 
DOCKED: ATOM     17  C3C HEM A1501      55.717  75.781  14.559 -0.38 +0.01    +0.015 A 
DOCKED: ATOM     18  C4C HEM A1501      55.344  76.921  13.699 -0.31 +0.03    +0.083 A 
DOCKED: ATOM     19  CMC HEM A1501      56.104  73.247  14.087 -0.56 +0.01    +0.033 C 
DOCKED: ATOM     20  C1D HEM A1501      54.794  79.400  13.290 -0.32 +0.05    +0.079 A 
DOCKED: ATOM     21  C2D HEM A1501      54.602  80.734  13.772 -0.38 -0.00    -0.007 A 
DOCKED: ATOM     22  C3D HEM A1501      54.349  81.503  12.681 -0.33 -0.00    -0.006 A 
DOCKED: ATOM     23  C4D HEM A1501      54.394  80.632  11.523 -0.21 +0.07    +0.079 A 
DOCKED: ATOM     24  CMD HEM A1501      54.669  81.183  15.177 -0.47 +0.01    +0.032 C 
DOCKED: ATOM     25  NA  HEM A1501      54.516  78.830   9.142 -0.18 -0.19    -0.246 N 
DOCKED: ATOM     26  NB  HEM A1501      54.966  76.037   9.592 -0.12 -0.12    -0.246 N 
DOCKED: ATOM     27  NC  HEM A1501      55.229  76.485  12.443 -0.14 -0.11    -0.246 N 
DOCKED: ATOM     28  ND  HEM A1501      54.670  79.364  11.929 -0.10 -0.17    -0.246 N 
DOCKED: ATOM     29 FE   HEM A1501      54.855  77.684  10.798 -0.07 +0.00    +0.000 Fe
DOCKED: ENDROOT
DOCKED: BRANCH  22  30
DOCKED: ATOM     30  CAD HEM A1501      54.085  82.960  12.737 -0.40 +0.04    +0.039 C 
DOCKED: BRANCH  30  31
DOCKED: ATOM     31  CBD HEM A1501      52.661  83.266  13.200 -0.51 +0.11    +0.102 C 
DOCKED: BRANCH  31  32
DOCKED: ATOM     32  CGD HEM A1501      52.262  84.712  12.973 -0.46 +0.27    +0.186 C 
DOCKED: ATOM     33  O1D HEM A1501      53.013  85.296  12.162 -0.58 -1.46    -0.647 OA
DOCKED: ATOM     34  O2D HEM A1501      51.210  85.254  13.536 -0.69 -0.94    -0.647 OA
DOCKED: ENDBRANCH  31  32
DOCKED: ENDBRANCH  30  31
DOCKED: ENDBRANCH  22  30
DOCKED: BRANCH   6  35
DOCKED: ATOM     35  CAA HEM A1501      53.909  81.962   7.160 -0.43 +0.05    +0.039 C 
DOCKED: BRANCH  35  36
DOCKED: ATOM     36  CBA HEM A1501      52.433  82.269   6.999 -0.56 +0.16    +0.102 C 
DOCKED: BRANCH  36  37
DOCKED: ATOM     37  CGA HEM A1501      52.143  83.587   6.335 -0.62 +0.35    +0.186 C 
DOCKED: ATOM     38  O1A HEM A1501      52.915  84.548   6.559 -1.19 -1.71    -0.647 OA
DOCKED: ATOM     39  O2A HEM A1501      51.172  83.656   5.553 -0.99 -1.32    -0.647 OA
DOCKED: ENDBRANCH  36  37
DOCKED: ENDBRANCH  35  36
DOCKED: ENDBRANCH   6  35
DOCKED: BRANCH  17  40
DOCKED: ATOM     40  CAC HEM A1501      55.958  75.860  16.004 -0.56 +0.00    +0.001 C 
DOCKED: ATOM     41  CBC HEM A1501      55.030  75.909  16.972 -0.62 +0.00    +0.000 C 
DOCKED: ENDBRANCH  17  40
DOCKED: BRANCH  12  42
DOCKED: ATOM     42  CAB HEM A1501      55.338  72.406   8.974 -0.55 +0.00    +0.001 C 
DOCKED: ATOM     43  CBB HEM A1501      55.935  71.713   9.923 -0.58 +0.00    +0.000 C 
DOCKED: ENDBRANCH  12  42
DOCKED: TORSDOF 8
DOCKED: TER
DOCKED: ENDMDL
________________________________________________________________________________


	BEGINNING GENETIC ALGORITHM DOCKING 72 of 100
Run: 72 Seed: 722541835 1996946595 [ Run 72 of 100 GA/GALS ]
Beginning LAMARCKIAN GENETIC ALGORITHM (LGA), with a maximum of 2500000 energy evaluations.

Final-Value: -23.083


	FINAL GENETIC ALGORITHM DOCKED STATE
	_______________________________________________


Detailed state:  trans 54.915 78.896 10.628 quatxyzw 0.178341 -0.966124 0.184596 0.026885 center 54.495 78.699 10.493 ntor 8 -173.4619 15.2106 180.0000 133.3004 -4.2923 10.3304 -151.1122 175.9034
State:	 54.915  78.896  10.628   0.178 -0.966  0.185 176.919   -173.46   15.21  180.00  133.30   -4.29   10.33 -151.11  175.90

DOCKED: MODEL       72
DOCKED: USER    Run = 72
DOCKED: USER    DPF = C:/Users/georg/Desktop/Dock/executables_autodock_tools/receptor.dpf
DOCKED: USER  
DOCKED: USER    Estimated Free Energy of Binding    =  -20.19 kcal/mol  [=(1)+(2)+(3)-(4)]
DOCKED: USER    Estimated Inhibition Constant, Ki   =    1.58 fM (femtomolar)  [Temperature = 298.15 K]
DOCKED: USER    
DOCKED: USER    (1) Final Intermolecular Energy     =  -22.58 kcal/mol
DOCKED: USER        vdW + Hbond + desolv Energy     =  -18.40 kcal/mol
DOCKED: USER        Electrostatic Energy            =   -4.18 kcal/mol
DOCKED: USER    (2) Final Total Internal Energy     =   -0.50 kcal/mol
DOCKED: USER    (3) Torsional Free Energy           =   +2.39 kcal/mol
DOCKED: USER    (4) Unbound System's Energy  [=(2)] =   -0.50 kcal/mol
DOCKED: USER    
DOCKED: USER    
DOCKED: USER    NEWDPF move ligand.pdbqt
DOCKED: USER    NEWDPF about 54.495000 78.699000 10.493000
DOCKED: USER    NEWDPF tran0 54.915187 78.896139 10.627717
DOCKED: USER    NEWDPF quaternion0 0.178341 -0.966124 0.184596 0.026885
DOCKED: USER    NEWDPF axisangle0 0.178406 -0.966474 0.184663 176.918807
DOCKED: USER    NEWDPF quat0 0.178406 -0.966474 0.184663 176.918807
DOCKED: USER    NEWDPF dihe0 -173.46 15.21 180.00 133.30 -4.29 10.33 -151.11 175.90 
DOCKED: USER  keepresnum = 1 
DOCKED: USER  
DOCKED: REMARK  8 active torsions:
DOCKED: REMARK  status: ('A' for Active; 'I' for Inactive)
DOCKED: REMARK    1  A    between atoms: C2A_3624  and  CAA_3628 
DOCKED: REMARK    2  A    between atoms: CAA_3628  and  CBA_3629 
DOCKED: REMARK    3  A    between atoms: CBA_3629  and  CGA_3630 
DOCKED: REMARK    4  A    between atoms: C3B_3635  and  CAB_3638 
DOCKED: REMARK    5  A    between atoms: C3C_3642  and  CAC_3645 
DOCKED: REMARK    6  A    between atoms: C3D_3649  and  CAD_3652 
DOCKED: REMARK    7  A    between atoms: CAD_3652  and  CBD_3653 
DOCKED: REMARK    8  A    between atoms: CBD_3653  and  CGD_3654 
DOCKED: USER                              x       y       z     vdW  Elec       q    Type
DOCKED: USER                           _______ _______ _______ _____ _____    ______ ____
DOCKED: ROOT
DOCKED: ATOM      1  CHA HEM A1501      54.149  81.088  10.156 -0.28 +0.04    +0.038 A 
DOCKED: ATOM      2  CHB HEM A1501      54.699  77.111   7.506 -0.37 +0.03    +0.038 A 
DOCKED: ATOM      3  CHC HEM A1501      55.481  74.525  11.503 -0.40 +0.01    +0.038 A 
DOCKED: ATOM      4  CHD HEM A1501      54.996  78.520  14.153 -0.39 +0.02    +0.038 A 
DOCKED: ATOM      5  C1A HEM A1501      54.257  80.231   9.065 -0.26 +0.08    +0.079 A 
DOCKED: ATOM      6  C2A HEM A1501      54.135  80.592   7.649 -0.34 -0.01    -0.006 A 
DOCKED: ATOM      7  C3A HEM A1501      54.287  79.480   6.945 -0.36 -0.01    -0.007 A 
DOCKED: ATOM      8  C4A HEM A1501      54.515  78.426   7.886 -0.32 +0.06    +0.079 A 
DOCKED: ATOM      9  CMA HEM A1501      54.256  79.334   5.454 -0.48 +0.03    +0.032 C 
DOCKED: ATOM     10  C1B HEM A1501      54.931  76.044   8.353 -0.35 +0.04    +0.079 A 
DOCKED: ATOM     11  C2B HEM A1501      55.099  74.667   7.903 -0.46 -0.00    -0.003 A 
DOCKED: ATOM     12  C3B HEM A1501      55.304  73.942   9.033 -0.45 +0.01    +0.015 A 
DOCKED: ATOM     13  C4B HEM A1501      55.284  74.875  10.156 -0.36 +0.03    +0.083 A 
DOCKED: ATOM     14  CMB HEM A1501      55.039  74.220   6.468 -0.57 +0.02    +0.033 C 
DOCKED: ATOM     15  C1C HEM A1501      55.461  75.343  12.601 -0.34 +0.03    +0.079 A 
DOCKED: ATOM     16  C2C HEM A1501      55.753  74.935  13.947 -0.40 -0.00    -0.003 A 
DOCKED: ATOM     17  C3C HEM A1501      55.639  76.050  14.714 -0.39 +0.01    +0.015 A 
DOCKED: ATOM     18  C4C HEM A1501      55.261  77.152  13.807 -0.32 +0.04    +0.083 A 
DOCKED: ATOM     19  CMC HEM A1501      56.109  73.515  14.336 -0.55 +0.01    +0.033 C 
DOCKED: ATOM     20  C1D HEM A1501      54.657  79.600  13.301 -0.32 +0.05    +0.079 A 
DOCKED: ATOM     21  C2D HEM A1501      54.413  80.942  13.734 -0.40 -0.00    -0.007 A 
DOCKED: ATOM     22  C3D HEM A1501      54.173  81.669  12.612 -0.35 -0.01    -0.006 A 
DOCKED: ATOM     23  C4D HEM A1501      54.279  80.764  11.484 -0.21 +0.07    +0.079 A 
DOCKED: ATOM     24  CMD HEM A1501      54.425  81.438  15.125 -0.47 +0.02    +0.032 C 
DOCKED: ATOM     25  NA  HEM A1501      54.523  78.891   9.168 -0.18 -0.20    -0.246 N 
DOCKED: ATOM     26  NB  HEM A1501      55.035  76.128   9.721 -0.08 -0.12    -0.246 N 
DOCKED: ATOM     27  NC  HEM A1501      55.198  76.673  12.563 -0.15 -0.11    -0.246 N 
DOCKED: ATOM     28  ND  HEM A1501      54.576  79.518  11.939 -0.11 -0.18    -0.246 N 
DOCKED: ATOM     29 FE   HEM A1501      54.842  77.809  10.869 -0.07 +0.00    +0.000 Fe
DOCKED: ENDROOT
DOCKED: BRANCH  22  30
DOCKED: ATOM     30  CAD HEM A1501      53.868  83.119  12.613 -0.43 +0.04    +0.039 C 
DOCKED: BRANCH  30  31
DOCKED: ATOM     31  CBD HEM A1501      52.523  83.420  13.272 -0.53 +0.11    +0.102 C 
DOCKED: BRANCH  31  32
DOCKED: ATOM     32  CGD HEM A1501      52.212  84.903  13.335 -0.48 +0.27    +0.186 C 
DOCKED: ATOM     33  O1D HEM A1501      53.228  85.599  13.553 -0.44 -1.17    -0.647 OA
DOCKED: ATOM     34  O2D HEM A1501      51.011  85.386  13.128 -0.67 -0.98    -0.647 OA
DOCKED: ENDBRANCH  31  32
DOCKED: ENDBRANCH  30  31
DOCKED: ENDBRANCH  22  30
DOCKED: BRANCH   6  35
DOCKED: ATOM     35  CAA HEM A1501      53.892  81.941   7.068 -0.44 +0.05    +0.039 C 
DOCKED: BRANCH  35  36
DOCKED: ATOM     36  CBA HEM A1501      52.412  82.268   7.009 -0.56 +0.16    +0.102 C 
DOCKED: BRANCH  36  37
DOCKED: ATOM     37  CGA HEM A1501      52.089  83.552   6.296 -0.61 +0.35    +0.186 C 
DOCKED: ATOM     38  O1A HEM A1501      52.774  84.567   6.560 -1.14 -1.69    -0.647 OA
DOCKED: ATOM     39  O2A HEM A1501      51.184  83.541   5.437 -1.06 -1.29    -0.647 OA
DOCKED: ENDBRANCH  36  37
DOCKED: ENDBRANCH  35  36
DOCKED: ENDBRANCH   6  35
DOCKED: BRANCH  17  40
DOCKED: ATOM     40  CAC HEM A1501      55.833  76.182  16.163 -0.57 +0.00    +0.001 C 
DOCKED: ATOM     41  CBC HEM A1501      55.227  75.467  17.123 -0.65 +0.00    +0.000 C 
DOCKED: ENDBRANCH  17  40
DOCKED: BRANCH  12  42
DOCKED: ATOM     42  CAB HEM A1501      55.525  72.492   9.233 -0.55 +0.00    +0.001 C 
DOCKED: ATOM     43  CBB HEM A1501      55.437  71.488   8.383 -0.55 +0.00    +0.000 C 
DOCKED: ENDBRANCH  12  42
DOCKED: TORSDOF 8
DOCKED: TER
DOCKED: ENDMDL
________________________________________________________________________________


	BEGINNING GENETIC ALGORITHM DOCKING 73 of 100
Run: 73 Seed: 879175069 1238941269 [ Run 73 of 100 GA/GALS ]
Beginning LAMARCKIAN GENETIC ALGORITHM (LGA), with a maximum of 2500000 energy evaluations.

Final-Value: -23.155


	FINAL GENETIC ALGORITHM DOCKED STATE
	_______________________________________________


Detailed state:  trans 54.943 78.724 10.512 quatxyzw 0.171819 -0.975566 0.136870 0.004091 center 54.495 78.699 10.493 ntor 8 119.4983 40.5299 -119.6722 168.0108 -8.3087 6.9556 174.8559 147.7476
State:	 54.943  78.724  10.512   0.172 -0.976  0.137 179.531    119.50   40.53 -119.67  168.01   -8.31    6.96  174.86  147.75

DOCKED: MODEL       73
DOCKED: USER    Run = 73
DOCKED: USER    DPF = C:/Users/georg/Desktop/Dock/executables_autodock_tools/receptor.dpf
DOCKED: USER  
DOCKED: USER    Estimated Free Energy of Binding    =  -20.23 kcal/mol  [=(1)+(2)+(3)-(4)]
DOCKED: USER    Estimated Inhibition Constant, Ki   =    1.48 fM (femtomolar)  [Temperature = 298.15 K]
DOCKED: USER    
DOCKED: USER    (1) Final Intermolecular Energy     =  -22.62 kcal/mol
DOCKED: USER        vdW + Hbond + desolv Energy     =  -18.42 kcal/mol
DOCKED: USER        Electrostatic Energy            =   -4.20 kcal/mol
DOCKED: USER    (2) Final Total Internal Energy     =   -0.54 kcal/mol
DOCKED: USER    (3) Torsional Free Energy           =   +2.39 kcal/mol
DOCKED: USER    (4) Unbound System's Energy  [=(2)] =   -0.54 kcal/mol
DOCKED: USER    
DOCKED: USER    
DOCKED: USER    NEWDPF move ligand.pdbqt
DOCKED: USER    NEWDPF about 54.495000 78.699000 10.493000
DOCKED: USER    NEWDPF tran0 54.943343 78.723909 10.512067
DOCKED: USER    NEWDPF quaternion0 0.171819 -0.975566 0.136870 0.004091
DOCKED: USER    NEWDPF axisangle0 0.171821 -0.975574 0.136871 179.531185
DOCKED: USER    NEWDPF quat0 0.171821 -0.975574 0.136871 179.531185
DOCKED: USER    NEWDPF dihe0 119.50 40.53 -119.67 168.01 -8.31 6.96 174.86 147.75 
DOCKED: USER  keepresnum = 1 
DOCKED: USER  
DOCKED: REMARK  8 active torsions:
DOCKED: REMARK  status: ('A' for Active; 'I' for Inactive)
DOCKED: REMARK    1  A    between atoms: C2A_3624  and  CAA_3628 
DOCKED: REMARK    2  A    between atoms: CAA_3628  and  CBA_3629 
DOCKED: REMARK    3  A    between atoms: CBA_3629  and  CGA_3630 
DOCKED: REMARK    4  A    between atoms: C3B_3635  and  CAB_3638 
DOCKED: REMARK    5  A    between atoms: C3C_3642  and  CAC_3645 
DOCKED: REMARK    6  A    between atoms: C3D_3649  and  CAD_3652 
DOCKED: REMARK    7  A    between atoms: CAD_3652  and  CBD_3653 
DOCKED: REMARK    8  A    between atoms: CBD_3653  and  CGD_3654 
DOCKED: USER                              x       y       z     vdW  Elec       q    Type
DOCKED: USER                           _______ _______ _______ _____ _____    ______ ____
DOCKED: ROOT
DOCKED: ATOM      1  CHA HEM A1501      54.205  80.963  10.280 -0.26 +0.04    +0.038 A 
DOCKED: ATOM      2  CHB HEM A1501      54.502  77.226   7.265 -0.40 +0.03    +0.038 A 
DOCKED: ATOM      3  CHC HEM A1501      55.452  74.283  10.968 -0.41 +0.01    +0.038 A 
DOCKED: ATOM      4  CHD HEM A1501      55.220  78.036  13.980 -0.37 +0.02    +0.038 A 
DOCKED: ATOM      5  C1A HEM A1501      54.228  80.205   9.114 -0.26 +0.08    +0.079 A 
DOCKED: ATOM      6  C2A HEM A1501      54.033  80.692   7.744 -0.35 -0.01    -0.006 A 
DOCKED: ATOM      7  C3A HEM A1501      54.117  79.643   6.938 -0.37 -0.01    -0.007 A 
DOCKED: ATOM      8  C4A HEM A1501      54.373  78.506   7.769 -0.33 +0.06    +0.079 A 
DOCKED: ATOM      9  CMA HEM A1501      53.996  79.630   5.445 -0.48 +0.03    +0.032 C 
DOCKED: ATOM     10  C1B HEM A1501      54.757  76.084   8.001 -0.37 +0.05    +0.079 A 
DOCKED: ATOM     11  C2B HEM A1501      54.866  74.750   7.423 -0.48 -0.00    -0.003 A 
DOCKED: ATOM     12  C3B HEM A1501      55.117  73.924   8.471 -0.45 +0.01    +0.015 A 
DOCKED: ATOM     13  C4B HEM A1501      55.186  74.754   9.670 -0.38 +0.03    +0.083 A 
DOCKED: ATOM     14  CMB HEM A1501      54.711  74.432   5.961 -0.59 +0.02    +0.033 C 
DOCKED: ATOM     15  C1C HEM A1501      55.516  75.001  12.131 -0.35 +0.03    +0.079 A 
DOCKED: ATOM     16  C2C HEM A1501      55.876  74.470  13.417 -0.43 -0.00    -0.003 A 
DOCKED: ATOM     17  C3C HEM A1501      55.834  75.514  14.284 -0.39 +0.01    +0.015 A 
DOCKED: ATOM     18  C4C HEM A1501      55.431  76.699  13.501 -0.30 +0.03    +0.083 A 
DOCKED: ATOM     19  CMC HEM A1501      56.219  73.014  13.659 -0.53 +0.01    +0.033 C 
DOCKED: ATOM     20  C1D HEM A1501      54.858  79.193  13.247 -0.31 +0.05    +0.079 A 
DOCKED: ATOM     21  C2D HEM A1501      54.673  80.497  13.809 -0.39 -0.00    -0.007 A 
DOCKED: ATOM     22  C3D HEM A1501      54.386  81.324  12.771 -0.33 -0.00    -0.006 A 
DOCKED: ATOM     23  C4D HEM A1501      54.403  80.520  11.565 -0.20 +0.07    +0.079 A 
DOCKED: ATOM     24  CMD HEM A1501      54.777  80.867  15.235 -0.42 +0.01    +0.032 C 
DOCKED: ATOM     25  NA  HEM A1501      54.467  78.856   9.083 -0.18 -0.20    -0.246 N 
DOCKED: ATOM     26  NB  HEM A1501      54.942  76.045   9.362 -0.17 -0.12    -0.246 N 
DOCKED: ATOM     27  NC  HEM A1501      55.284  76.333  12.226 -0.14 -0.10    -0.246 N 
DOCKED: ATOM     28  ND  HEM A1501      54.696  79.234  11.891 -0.08 -0.17    -0.246 N 
DOCKED: ATOM     29 FE   HEM A1501      54.858  77.621  10.662 -0.07 +0.00    +0.000 Fe
DOCKED: ENDROOT
DOCKED: BRANCH  22  30
DOCKED: ATOM     30  CAD HEM A1501      54.117  82.774  12.917 -0.39 +0.04    +0.039 C 
DOCKED: BRANCH  30  31
DOCKED: ATOM     31  CBD HEM A1501      52.621  83.085  12.875 -0.50 +0.11    +0.102 C 
DOCKED: BRANCH  31  32
DOCKED: ATOM     32  CGD HEM A1501      52.310  84.540  13.173 -0.49 +0.25    +0.186 C 
DOCKED: ATOM     33  O1D HEM A1501      53.276  85.297  12.937 -0.64 -1.26    -0.647 OA
DOCKED: ATOM     34  O2D HEM A1501      51.132  84.943  13.583 -0.47 -0.86    -0.647 OA
DOCKED: ENDBRANCH  31  32
DOCKED: ENDBRANCH  30  31
DOCKED: ENDBRANCH  22  30
DOCKED: BRANCH   6  35
DOCKED: ATOM     35  CAA HEM A1501      53.789  82.091   7.299 -0.44 +0.06    +0.039 C 
DOCKED: BRANCH  35  36
DOCKED: ATOM     36  CBA HEM A1501      52.404  82.257   6.706 -0.57 +0.15    +0.102 C 
DOCKED: BRANCH  36  37
DOCKED: ATOM     37  CGA HEM A1501      52.120  83.634   6.171 -0.63 +0.35    +0.186 C 
DOCKED: ATOM     38  O1A HEM A1501      52.929  84.553   6.436 -1.19 -1.67    -0.647 OA
DOCKED: ATOM     39  O2A HEM A1501      51.115  83.794   5.448 -1.06 -1.33    -0.647 OA
DOCKED: ENDBRANCH  36  37
DOCKED: ENDBRANCH  35  36
DOCKED: ENDBRANCH   6  35
DOCKED: BRANCH  17  40
DOCKED: ATOM     40  CAC HEM A1501      56.115  75.514  15.725 -0.54 +0.00    +0.001 C 
DOCKED: ATOM     41  CBC HEM A1501      55.278  75.883  16.707 -0.62 +0.00    +0.000 C 
DOCKED: ENDBRANCH  17  40
DOCKED: BRANCH  12  42
DOCKED: ATOM     42  CAB HEM A1501      55.315  72.457   8.531 -0.54 +0.00    +0.001 C 
DOCKED: ATOM     43  CBB HEM A1501      55.588  71.592   7.575 -0.55 +0.00    +0.000 C 
DOCKED: ENDBRANCH  12  42
DOCKED: TORSDOF 8
DOCKED: TER
DOCKED: ENDMDL
________________________________________________________________________________


	BEGINNING GENETIC ALGORITHM DOCKING 74 of 100
Run: 74 Seed: 351610141 471355680 [ Run 74 of 100 GA/GALS ]
Beginning LAMARCKIAN GENETIC ALGORITHM (LGA), with a maximum of 2500000 energy evaluations.

Final-Value: -23.197


	FINAL GENETIC ALGORITHM DOCKED STATE
	_______________________________________________


Detailed state:  trans 54.928 79.156 10.944 quatxyzw -0.186636 0.969644 -0.156974 -0.017810 center 54.495 78.699 10.493 ntor 8 151.2271 -49.3829 -123.8378 161.2635 -21.8882 20.5505 169.3891 153.1011
State:	 54.928  79.156  10.944  -0.187  0.970 -0.157 -177.959    151.23  -49.38 -123.84  161.26  -21.89   20.55  169.39  153.10

DOCKED: MODEL       74
DOCKED: USER    Run = 74
DOCKED: USER    DPF = C:/Users/georg/Desktop/Dock/executables_autodock_tools/receptor.dpf
DOCKED: USER  
DOCKED: USER    Estimated Free Energy of Binding    =  -20.20 kcal/mol  [=(1)+(2)+(3)-(4)]
DOCKED: USER    Estimated Inhibition Constant, Ki   =    1.57 fM (femtomolar)  [Temperature = 298.15 K]
DOCKED: USER    
DOCKED: USER    (1) Final Intermolecular Energy     =  -22.58 kcal/mol
DOCKED: USER        vdW + Hbond + desolv Energy     =  -18.52 kcal/mol
DOCKED: USER        Electrostatic Energy            =   -4.06 kcal/mol
DOCKED: USER    (2) Final Total Internal Energy     =   -0.61 kcal/mol
DOCKED: USER    (3) Torsional Free Energy           =   +2.39 kcal/mol
DOCKED: USER    (4) Unbound System's Energy  [=(2)] =   -0.61 kcal/mol
DOCKED: USER    
DOCKED: USER    
DOCKED: USER    NEWDPF move ligand.pdbqt
DOCKED: USER    NEWDPF about 54.495000 78.699000 10.493000
DOCKED: USER    NEWDPF tran0 54.927538 79.155735 10.944068
DOCKED: USER    NEWDPF quaternion0 -0.186636 0.969644 -0.156974 -0.017810
DOCKED: USER    NEWDPF axisangle0 -0.186666 0.969798 -0.156999 -177.959046
DOCKED: USER    NEWDPF quat0 -0.186666 0.969798 -0.156999 -177.959046
DOCKED: USER    NEWDPF dihe0 151.23 -49.38 -123.84 161.26 -21.89 20.55 169.39 153.10 
DOCKED: USER  keepresnum = 1 
DOCKED: USER  
DOCKED: REMARK  8 active torsions:
DOCKED: REMARK  status: ('A' for Active; 'I' for Inactive)
DOCKED: REMARK    1  A    between atoms: C2A_3624  and  CAA_3628 
DOCKED: REMARK    2  A    between atoms: CAA_3628  and  CBA_3629 
DOCKED: REMARK    3  A    between atoms: CBA_3629  and  CGA_3630 
DOCKED: REMARK    4  A    between atoms: C3B_3635  and  CAB_3638 
DOCKED: REMARK    5  A    between atoms: C3C_3642  and  CAC_3645 
DOCKED: REMARK    6  A    between atoms: C3D_3649  and  CAD_3652 
DOCKED: REMARK    7  A    between atoms: CAD_3652  and  CBD_3653 
DOCKED: REMARK    8  A    between atoms: CBD_3653  and  CGD_3654 
DOCKED: USER                              x       y       z     vdW  Elec       q    Type
DOCKED: USER                           _______ _______ _______ _____ _____    ______ ____
DOCKED: ROOT
DOCKED: ATOM      1  CHA HEM A1501      54.120  81.358  10.608 -0.28 +0.04    +0.038 A 
DOCKED: ATOM      2  CHB HEM A1501      54.636  77.528   7.743 -0.36 +0.03    +0.038 A 
DOCKED: ATOM      3  CHC HEM A1501      55.573  74.754  11.577 -0.39 +0.01    +0.038 A 
DOCKED: ATOM      4  CHD HEM A1501      55.122  78.602  14.442 -0.39 +0.01    +0.038 A 
DOCKED: ATOM      5  C1A HEM A1501      54.205  80.560   9.472 -0.25 +0.08    +0.079 A 
DOCKED: ATOM      6  C2A HEM A1501      54.035  80.990   8.081 -0.35 -0.01    -0.006 A 
DOCKED: ATOM      7  C3A HEM A1501      54.179  79.917   7.317 -0.35 -0.01    -0.007 A 
DOCKED: ATOM      8  C4A HEM A1501      54.448  78.820   8.195 -0.31 +0.06    +0.079 A 
DOCKED: ATOM      9  CMA HEM A1501      54.103  79.847   5.822 -0.46 +0.03    +0.032 C 
DOCKED: ATOM     10  C1B HEM A1501      54.907  76.423   8.527 -0.31 +0.05    +0.079 A 
DOCKED: ATOM     11  C2B HEM A1501      55.079  75.074   8.002 -0.45 -0.00    -0.003 A 
DOCKED: ATOM     12  C3B HEM A1501      55.326  74.295   9.087 -0.44 +0.01    +0.015 A 
DOCKED: ATOM     13  C4B HEM A1501      55.330  75.169  10.256 -0.34 +0.03    +0.083 A 
DOCKED: ATOM     14  CMB HEM A1501      54.980  74.699   6.549 -0.57 +0.02    +0.033 C 
DOCKED: ATOM     15  C1C HEM A1501      55.577  75.515  12.715 -0.33 +0.03    +0.079 A 
DOCKED: ATOM     16  C2C HEM A1501      55.916  75.043  14.030 -0.42 -0.00    -0.003 A 
DOCKED: ATOM     17  C3C HEM A1501      55.812  76.116  14.856 -0.40 +0.01    +0.015 A 
DOCKED: ATOM     18  C4C HEM A1501      55.393  77.257  14.018 -0.33 +0.03    +0.083 A 
DOCKED: ATOM     19  CMC HEM A1501      56.301  73.610  14.335 -0.56 +0.01    +0.033 C 
DOCKED: ATOM     20  C1D HEM A1501      54.744  79.719  13.657 -0.34 +0.04    +0.079 A 
DOCKED: ATOM     21  C2D HEM A1501      54.497  81.035  14.164 -0.41 -0.00    -0.007 A 
DOCKED: ATOM     22  C3D HEM A1501      54.214  81.814  13.089 -0.36 -0.00    -0.006 A 
DOCKED: ATOM     23  C4D HEM A1501      54.295  80.969  11.914 -0.25 +0.07    +0.079 A 
DOCKED: ATOM     24  CMD HEM A1501      54.546  81.459  15.578 -0.47 +0.01    +0.032 C 
DOCKED: ATOM     25  NA  HEM A1501      54.490  79.220   9.498 -0.16 -0.20    -0.246 N 
DOCKED: ATOM     26  NB  HEM A1501      55.052  76.440   9.894 +0.10 -0.12    -0.246 N 
DOCKED: ATOM     27  NC  HEM A1501      55.297  76.841  12.754 -0.17 -0.11    -0.246 N 
DOCKED: ATOM     28  ND  HEM A1501      54.622  79.705  12.295 -0.16 -0.17    -0.246 N 
DOCKED: ATOM     29 FE   HEM A1501      54.875  78.057  11.132 -0.07 +0.00    +0.000 Fe
DOCKED: ENDROOT
DOCKED: BRANCH  22  30
DOCKED: ATOM     30  CAD HEM A1501      53.892  83.258  13.173 -0.43 +0.04    +0.039 C 
DOCKED: BRANCH  30  31
DOCKED: ATOM     31  CBD HEM A1501      52.405  83.526  12.943 -0.51 +0.12    +0.102 C 
DOCKED: BRANCH  31  32
DOCKED: ATOM     32  CGD HEM A1501      51.955  84.872  13.480 -0.51 +0.26    +0.186 C 
DOCKED: ATOM     33  O1D HEM A1501      52.908  85.663  13.653 -0.49 -1.16    -0.647 OA
DOCKED: ATOM     34  O2D HEM A1501      50.695  85.169  13.683 -0.87 -0.87    -0.647 OA
DOCKED: ENDBRANCH  31  32
DOCKED: ENDBRANCH  30  31
DOCKED: ENDBRANCH  22  30
DOCKED: BRANCH   6  35
DOCKED: ATOM     35  CAA HEM A1501      53.758  82.363   7.577 -0.37 +0.06    +0.039 C 
DOCKED: BRANCH  35  36
DOCKED: ATOM     36  CBA HEM A1501      52.339  82.494   7.057 -0.57 +0.16    +0.102 C 
DOCKED: BRANCH  36  37
DOCKED: ATOM     37  CGA HEM A1501      52.106  83.700   6.189 -0.64 +0.36    +0.186 C 
DOCKED: ATOM     38  O1A HEM A1501      52.937  84.636   6.237 -1.14 -1.66    -0.647 OA
DOCKED: ATOM     39  O2A HEM A1501      51.120  83.698   5.424 -1.06 -1.32    -0.647 OA
DOCKED: ENDBRANCH  36  37
DOCKED: ENDBRANCH  35  36
DOCKED: ENDBRANCH   6  35
DOCKED: BRANCH  17  40
DOCKED: ATOM     40  CAC HEM A1501      56.049  76.177  16.303 -0.58 +0.00    +0.001 C 
DOCKED: ATOM     41  CBC HEM A1501      55.148  75.965  17.275 -0.67 +0.00    +0.000 C 
DOCKED: ENDBRANCH  17  40
DOCKED: BRANCH  12  42
DOCKED: ATOM     42  CAB HEM A1501      55.572  72.839   9.206 -0.52 +0.00    +0.001 C 
DOCKED: ATOM     43  CBB HEM A1501      54.742  71.821   9.095 -0.57 +0.00    +0.000 C 
DOCKED: ENDBRANCH  12  42
DOCKED: TORSDOF 8
DOCKED: TER
DOCKED: ENDMDL
________________________________________________________________________________


	BEGINNING GENETIC ALGORITHM DOCKING 75 of 100
Run: 75 Seed: 1835302508 1771810660 [ Run 75 of 100 GA/GALS ]
Beginning LAMARCKIAN GENETIC ALGORITHM (LGA), with a maximum of 2500000 energy evaluations.

Final-Value: -23.195


	FINAL GENETIC ALGORITHM DOCKED STATE
	_______________________________________________


Detailed state:  trans 54.399 78.827 10.676 quatxyzw 0.017109 0.003622 0.002157 -0.999845 center 54.495 78.699 10.493 ntor 8 17.1719 -20.4597 179.7763 180.0000 12.4367 34.1067 -6.8782 7.9395
State:	 54.399  78.827  10.676   0.971  0.206  0.122 -2.019     17.17  -20.46  179.78  180.00   12.44   34.11   -6.88    7.94

DOCKED: MODEL       75
DOCKED: USER    Run = 75
DOCKED: USER    DPF = C:/Users/georg/Desktop/Dock/executables_autodock_tools/receptor.dpf
DOCKED: USER  
DOCKED: USER    Estimated Free Energy of Binding    =  -20.28 kcal/mol  [=(1)+(2)+(3)-(4)]
DOCKED: USER    Estimated Inhibition Constant, Ki   =    1.36 fM (femtomolar)  [Temperature = 298.15 K]
DOCKED: USER    
DOCKED: USER    (1) Final Intermolecular Energy     =  -22.67 kcal/mol
DOCKED: USER        vdW + Hbond + desolv Energy     =  -18.29 kcal/mol
DOCKED: USER        Electrostatic Energy            =   -4.38 kcal/mol
DOCKED: USER    (2) Final Total Internal Energy     =   -0.53 kcal/mol
DOCKED: USER    (3) Torsional Free Energy           =   +2.39 kcal/mol
DOCKED: USER    (4) Unbound System's Energy  [=(2)] =   -0.53 kcal/mol
DOCKED: USER    
DOCKED: USER    
DOCKED: USER    NEWDPF move ligand.pdbqt
DOCKED: USER    NEWDPF about 54.495000 78.699000 10.493000
DOCKED: USER    NEWDPF tran0 54.398812 78.826706 10.676163
DOCKED: USER    NEWDPF quaternion0 0.017109 0.003622 0.002157 -0.999845
DOCKED: USER    NEWDPF axisangle0 0.970952 0.205585 0.122426 -2.019253
DOCKED: USER    NEWDPF quat0 0.970952 0.205585 0.122426 -2.019253
DOCKED: USER    NEWDPF dihe0 17.17 -20.46 179.78 180.00 12.44 34.11 -6.88 7.94 
DOCKED: USER  keepresnum = 1 
DOCKED: USER  
DOCKED: REMARK  8 active torsions:
DOCKED: REMARK  status: ('A' for Active; 'I' for Inactive)
DOCKED: REMARK    1  A    between atoms: C2A_3624  and  CAA_3628 
DOCKED: REMARK    2  A    between atoms: CAA_3628  and  CBA_3629 
DOCKED: REMARK    3  A    between atoms: CBA_3629  and  CGA_3630 
DOCKED: REMARK    4  A    between atoms: C3B_3635  and  CAB_3638 
DOCKED: REMARK    5  A    between atoms: C3C_3642  and  CAC_3645 
DOCKED: REMARK    6  A    between atoms: C3D_3649  and  CAD_3652 
DOCKED: REMARK    7  A    between atoms: CAD_3652  and  CBD_3653 
DOCKED: REMARK    8  A    between atoms: CBD_3653  and  CGD_3654 
DOCKED: USER                              x       y       z     vdW  Elec       q    Type
DOCKED: USER                           _______ _______ _______ _____ _____    ______ ____
DOCKED: ROOT
DOCKED: ATOM      1  CHA HEM A1501      54.319  81.171  10.345 -0.27 +0.04    +0.038 A 
DOCKED: ATOM      2  CHB HEM A1501      55.218  78.377  14.156 -0.38 +0.02    +0.038 A 
DOCKED: ATOM      3  CHC HEM A1501      55.455  74.503  11.290 -0.40 +0.01    +0.038 A 
DOCKED: ATOM      4  CHD HEM A1501      54.490  77.291   7.481 -0.39 +0.03    +0.038 A 
DOCKED: ATOM      5  C1A HEM A1501      54.517  80.747  11.655 -0.22 +0.07    +0.079 A 
DOCKED: ATOM      6  C2A HEM A1501      54.489  81.579  12.862 -0.31 -0.00    -0.006 A 
DOCKED: ATOM      7  C3A HEM A1501      54.742  80.785  13.893 -0.37 -0.00    -0.007 A 
DOCKED: ATOM      8  C4A HEM A1501      54.918  79.467  13.363 -0.31 +0.04    +0.079 A 
DOCKED: ATOM      9  CMA HEM A1501      54.811  81.166  15.340 -0.47 +0.01    +0.032 C 
DOCKED: ATOM     10  C1B HEM A1501      55.393  77.077  13.719 -0.32 +0.03    +0.079 A 
DOCKED: ATOM     11  C2B HEM A1501      55.729  75.961  14.596 -0.40 -0.00    -0.003 A 
DOCKED: ATOM     12  C3B HEM A1501      55.810  74.877  13.782 -0.41 +0.01    +0.015 A 
DOCKED: ATOM     13  C4B HEM A1501      55.501  75.327  12.428 -0.33 +0.03    +0.083 A 
DOCKED: ATOM     14  CMB HEM A1501      55.934  76.068  16.082 -0.54 +0.01    +0.033 C 
DOCKED: ATOM     15  C1C HEM A1501      55.189  74.861   9.996 -0.37 +0.03    +0.079 A 
DOCKED: ATOM     16  C2C HEM A1501      55.075  73.953   8.888 -0.46 -0.00    -0.003 A 
DOCKED: ATOM     17  C3C HEM A1501      54.785  74.714   7.802 -0.46 +0.01    +0.015 A 
DOCKED: ATOM     18  C4C HEM A1501      54.733  76.114   8.267 -0.36 +0.05    +0.083 A 
DOCKED: ATOM     19  CMC HEM A1501      55.258  72.454   9.009 -0.53 +0.01    +0.033 C 
DOCKED: ATOM     20  C1D HEM A1501      54.409  78.639   7.906 -0.32 +0.06    +0.079 A 
DOCKED: ATOM     21  C2D HEM A1501      54.156  79.757   7.049 -0.36 -0.01    -0.007 A 
DOCKED: ATOM     22  C3D HEM A1501      54.108  80.852   7.850 -0.35 -0.01    -0.006 A 
DOCKED: ATOM     23  C4D HEM A1501      54.326  80.399   9.210 -0.25 +0.08    +0.079 A 
DOCKED: ATOM     24  CMD HEM A1501      53.978  79.724   5.583 -0.47 +0.03    +0.032 C 
DOCKED: ATOM     25  NA  HEM A1501      54.754  79.445  12.010 -0.13 -0.17    -0.246 N 
DOCKED: ATOM     26  NB  HEM A1501      55.278  76.659  12.415 -0.13 -0.11    -0.246 N 
DOCKED: ATOM     27  NC  HEM A1501      54.954  76.131   9.583 -0.10 -0.12    -0.246 N 
DOCKED: ATOM     28  ND  HEM A1501      54.502  79.051   9.206 -0.18 -0.20    -0.246 N 
DOCKED: ATOM     29 FE   HEM A1501      54.861  77.816  10.782 -0.07 +0.00    +0.000 Fe
DOCKED: ENDROOT
DOCKED: BRANCH  22  30
DOCKED: ATOM     30  CAD HEM A1501      53.869  82.230   7.358 -0.43 +0.06    +0.039 C 
DOCKED: BRANCH  30  31
DOCKED: ATOM     31  CBD HEM A1501      52.393  82.478   7.046 -0.56 +0.16    +0.102 C 
DOCKED: BRANCH  31  32
DOCKED: ATOM     32  CGD HEM A1501      52.164  83.733   6.225 -0.64 +0.36    +0.186 C 
DOCKED: ATOM     33  O1D HEM A1501      52.938  84.663   6.541 -1.12 -1.78    -0.647 OA
DOCKED: ATOM     34  O2D HEM A1501      51.281  83.797   5.259 -1.03 -1.27    -0.647 OA
DOCKED: ENDBRANCH  31  32
DOCKED: ENDBRANCH  30  31
DOCKED: ENDBRANCH  22  30
DOCKED: BRANCH   6  35
DOCKED: ATOM     35  CAA HEM A1501      54.224  83.040  12.958 -0.38 +0.04    +0.039 C 
DOCKED: BRANCH  35  36
DOCKED: ATOM     36  CBA HEM A1501      52.848  83.325  13.528 -0.49 +0.10    +0.102 C 
DOCKED: BRANCH  36  37
DOCKED: ATOM     37  CGA HEM A1501      52.223  84.599  13.031 -0.48 +0.26    +0.186 C 
DOCKED: ATOM     38  O1A HEM A1501      52.857  85.287  12.198 -0.58 -1.40    -0.647 OA
DOCKED: ATOM     39  O2A HEM A1501      51.079  84.894  13.434 -0.43 -0.85    -0.647 OA
DOCKED: ENDBRANCH  36  37
DOCKED: ENDBRANCH  35  36
DOCKED: ENDBRANCH   6  35
DOCKED: BRANCH  17  40
DOCKED: ATOM     40  CAC HEM A1501      54.569  74.280   6.417 -0.60 +0.00    +0.001 C 
DOCKED: ATOM     41  CBC HEM A1501      53.606  74.701   5.583 -0.65 +0.00    +0.000 C 
DOCKED: ENDBRANCH  17  40
DOCKED: BRANCH  12  42
DOCKED: ATOM     42  CAB HEM A1501      56.128  73.460  14.074 -0.57 +0.00    +0.001 C 
DOCKED: ATOM     43  CBB HEM A1501      57.070  72.935  14.832 -0.65 +0.00    +0.000 C 
DOCKED: ENDBRANCH  12  42
DOCKED: TORSDOF 8
DOCKED: TER
DOCKED: ENDMDL
________________________________________________________________________________


	BEGINNING GENETIC ALGORITHM DOCKING 76 of 100
Run: 76 Seed: 1457702061 1294141114 [ Run 76 of 100 GA/GALS ]
Beginning LAMARCKIAN GENETIC ALGORITHM (LGA), with a maximum of 2500000 energy evaluations.

Final-Value: -23.262


	FINAL GENETIC ALGORITHM DOCKED STATE
	_______________________________________________


Detailed state:  trans 54.894 79.115 10.820 quatxyzw 0.190308 -0.968589 0.158241 0.024054 center 54.495 78.699 10.493 ntor 8 153.1365 -63.7946 -163.7747 -174.2245 0.5226 -7.1018 -156.1543 133.1380
State:	 54.894  79.115  10.820   0.190 -0.969  0.158 177.243    153.14  -63.79 -163.77 -174.22    0.52   -7.10 -156.15  133.14

DOCKED: MODEL       76
DOCKED: USER    Run = 76
DOCKED: USER    DPF = C:/Users/georg/Desktop/Dock/executables_autodock_tools/receptor.dpf
DOCKED: USER  
DOCKED: USER    Estimated Free Energy of Binding    =  -20.41 kcal/mol  [=(1)+(2)+(3)-(4)]
DOCKED: USER    Estimated Inhibition Constant, Ki   =    1.09 fM (femtomolar)  [Temperature = 298.15 K]
DOCKED: USER    
DOCKED: USER    (1) Final Intermolecular Energy     =  -22.80 kcal/mol
DOCKED: USER        vdW + Hbond + desolv Energy     =  -18.54 kcal/mol
DOCKED: USER        Electrostatic Energy            =   -4.26 kcal/mol
DOCKED: USER    (2) Final Total Internal Energy     =   -0.46 kcal/mol
DOCKED: USER    (3) Torsional Free Energy           =   +2.39 kcal/mol
DOCKED: USER    (4) Unbound System's Energy  [=(2)] =   -0.46 kcal/mol
DOCKED: USER    
DOCKED: USER    
DOCKED: USER    NEWDPF move ligand.pdbqt
DOCKED: USER    NEWDPF about 54.495000 78.699000 10.493000
DOCKED: USER    NEWDPF tran0 54.894430 79.114986 10.820263
DOCKED: USER    NEWDPF quaternion0 0.190308 -0.968589 0.158241 0.024054
DOCKED: USER    NEWDPF axisangle0 0.190363 -0.968869 0.158287 177.243402
DOCKED: USER    NEWDPF quat0 0.190363 -0.968869 0.158287 177.243402
DOCKED: USER    NEWDPF dihe0 153.14 -63.79 -163.77 -174.22 0.52 -7.10 -156.15 133.14 
DOCKED: USER  keepresnum = 1 
DOCKED: USER  
DOCKED: REMARK  8 active torsions:
DOCKED: REMARK  status: ('A' for Active; 'I' for Inactive)
DOCKED: REMARK    1  A    between atoms: C2A_3624  and  CAA_3628 
DOCKED: REMARK    2  A    between atoms: CAA_3628  and  CBA_3629 
DOCKED: REMARK    3  A    between atoms: CBA_3629  and  CGA_3630 
DOCKED: REMARK    4  A    between atoms: C3B_3635  and  CAB_3638 
DOCKED: REMARK    5  A    between atoms: C3C_3642  and  CAC_3645 
DOCKED: REMARK    6  A    between atoms: C3D_3649  and  CAD_3652 
DOCKED: REMARK    7  A    between atoms: CAD_3652  and  CBD_3653 
DOCKED: REMARK    8  A    between atoms: CBD_3653  and  CGD_3654 
DOCKED: USER                              x       y       z     vdW  Elec       q    Type
DOCKED: USER                           _______ _______ _______ _____ _____    ______ ____
DOCKED: ROOT
DOCKED: ATOM      1  CHA HEM A1501      54.071  81.309  10.474 -0.29 +0.04    +0.038 A 
DOCKED: ATOM      2  CHB HEM A1501      54.655  77.483   7.617 -0.36 +0.03    +0.038 A 
DOCKED: ATOM      3  CHC HEM A1501      55.574  74.720  11.464 -0.39 +0.01    +0.038 A 
DOCKED: ATOM      4  CHD HEM A1501      55.054  78.565  14.320 -0.39 +0.02    +0.038 A 
DOCKED: ATOM      5  C1A HEM A1501      54.176  80.511   9.339 -0.26 +0.08    +0.079 A 
DOCKED: ATOM      6  C2A HEM A1501      54.017  80.939   7.946 -0.36 -0.01    -0.006 A 
DOCKED: ATOM      7  C3A HEM A1501      54.180  79.867   7.184 -0.35 -0.01    -0.007 A 
DOCKED: ATOM      8  C4A HEM A1501      54.450  78.773   8.066 -0.31 +0.06    +0.079 A 
DOCKED: ATOM      9  CMA HEM A1501      54.123  79.796   5.688 -0.47 +0.03    +0.032 C 
DOCKED: ATOM     10  C1B HEM A1501      54.928  76.381   8.405 -0.32 +0.05    +0.079 A 
DOCKED: ATOM     11  C2B HEM A1501      55.118  75.033   7.882 -0.46 -0.00    -0.003 A 
DOCKED: ATOM     12  C3B HEM A1501      55.360  74.257   8.971 -0.44 +0.01    +0.015 A 
DOCKED: ATOM     13  C4B HEM A1501      55.343  75.132  10.140 -0.34 +0.03    +0.083 A 
DOCKED: ATOM     14  CMB HEM A1501      55.039  74.656   6.429 -0.58 +0.02    +0.033 C 
DOCKED: ATOM     15  C1C HEM A1501      55.558  75.481  12.601 -0.33 +0.03    +0.079 A 
DOCKED: ATOM     16  C2C HEM A1501      55.886  75.014  13.920 -0.42 -0.00    -0.003 A 
DOCKED: ATOM     17  C3C HEM A1501      55.763  76.086  14.744 -0.40 +0.01    +0.015 A 
DOCKED: ATOM     18  C4C HEM A1501      55.343  77.222  13.901 -0.33 +0.03    +0.083 A 
DOCKED: ATOM     19  CMC HEM A1501      56.281  73.584  14.230 -0.55 +0.01    +0.033 C 
DOCKED: ATOM     20  C1D HEM A1501      54.674  79.678  13.530 -0.34 +0.05    +0.079 A 
DOCKED: ATOM     21  C2D HEM A1501      54.410  80.991  14.034 -0.41 -0.00    -0.007 A 
DOCKED: ATOM     22  C3D HEM A1501      54.131  81.767  12.955 -0.37 -0.00    -0.006 A 
DOCKED: ATOM     23  C4D HEM A1501      54.234  80.922  11.781 -0.24 +0.07    +0.079 A 
DOCKED: ATOM     24  CMD HEM A1501      54.438  81.417  15.448 -0.46 +0.01    +0.032 C 
DOCKED: ATOM     25  NA  HEM A1501      54.473  79.174   9.369 -0.17 -0.20    -0.246 N 
DOCKED: ATOM     26  NB  HEM A1501      55.057  76.400   9.774 +0.01 -0.12    -0.246 N 
DOCKED: ATOM     27  NC  HEM A1501      55.265  76.805  12.636 -0.16 -0.11    -0.246 N 
DOCKED: ATOM     28  ND  HEM A1501      54.568  79.662  12.168 -0.14 -0.18    -0.246 N 
DOCKED: ATOM     29 FE   HEM A1501      54.850  78.016  11.008 -0.07 +0.00    +0.000 Fe
DOCKED: ENDROOT
DOCKED: BRANCH  22  30
DOCKED: ATOM     30  CAD HEM A1501      53.794  83.208  13.035 -0.44 +0.04    +0.039 C 
DOCKED: BRANCH  30  31
DOCKED: ATOM     31  CBD HEM A1501      52.402  83.438  13.622 -0.48 +0.10    +0.102 C 
DOCKED: BRANCH  31  32
DOCKED: ATOM     32  CGD HEM A1501      52.008  84.903  13.657 -0.50 +0.25    +0.186 C 
DOCKED: ATOM     33  O1D HEM A1501      52.995  85.668  13.597 -0.45 -1.19    -0.647 OA
DOCKED: ATOM     34  O2D HEM A1501      50.760  85.301  13.694 -0.97 -0.89    -0.647 OA
DOCKED: ENDBRANCH  31  32
DOCKED: ENDBRANCH  30  31
DOCKED: ENDBRANCH  22  30
DOCKED: BRANCH   6  35
DOCKED: ATOM     35  CAA HEM A1501      53.733  82.309   7.438 -0.43 +0.06    +0.039 C 
DOCKED: BRANCH  35  36
DOCKED: ATOM     36  CBA HEM A1501      52.553  82.320   6.486 -0.58 +0.15    +0.102 C 
DOCKED: BRANCH  36  37
DOCKED: ATOM     37  CGA HEM A1501      52.048  83.695   6.142 -0.63 +0.35    +0.186 C 
DOCKED: ATOM     38  O1A HEM A1501      52.700  84.686   6.543 -1.03 -1.74    -0.647 OA
DOCKED: ATOM     39  O2A HEM A1501      51.025  83.790   5.432 -1.05 -1.35    -0.647 OA
DOCKED: ENDBRANCH  36  37
DOCKED: ENDBRANCH  35  36
DOCKED: ENDBRANCH   6  35
DOCKED: BRANCH  17  40
DOCKED: ATOM     40  CAC HEM A1501      55.982  76.150  16.194 -0.57 +0.00    +0.001 C 
DOCKED: ATOM     41  CBC HEM A1501      55.082  75.895  17.155 -0.65 +0.00    +0.000 C 
DOCKED: ENDBRANCH  17  40
DOCKED: BRANCH  12  42
DOCKED: ATOM     42  CAB HEM A1501      55.618  72.804   9.094 -0.49 +0.00    +0.001 C 
DOCKED: ATOM     43  CBB HEM A1501      54.779  71.796   9.224 -0.58 +0.00    +0.000 C 
DOCKED: ENDBRANCH  12  42
DOCKED: TORSDOF 8
DOCKED: TER
DOCKED: ENDMDL
________________________________________________________________________________


	BEGINNING GENETIC ALGORITHM DOCKING 77 of 100
Run: 77 Seed: 1403857464 1126439208 [ Run 77 of 100 GA/GALS ]
Beginning LAMARCKIAN GENETIC ALGORITHM (LGA), with a maximum of 2500000 energy evaluations.

Final-Value: -23.380


	FINAL GENETIC ALGORITHM DOCKED STATE
	_______________________________________________


Detailed state:  trans 54.331 78.876 10.601 quatxyzw 0.006070 0.018628 -0.016633 0.999670 center 54.495 78.699 10.493 ntor 8 -8.0164 -32.3310 179.7287 164.4008 7.1159 -8.4129 6.5658 5.5281
State:	 54.331  78.876  10.601   0.236  0.725 -0.647  2.945     -8.02  -32.33  179.73  164.40    7.12   -8.41    6.57    5.53

DOCKED: MODEL       77
DOCKED: USER    Run = 77
DOCKED: USER    DPF = C:/Users/georg/Desktop/Dock/executables_autodock_tools/receptor.dpf
DOCKED: USER  
DOCKED: USER    Estimated Free Energy of Binding    =  -20.40 kcal/mol  [=(1)+(2)+(3)-(4)]
DOCKED: USER    Estimated Inhibition Constant, Ki   =    1.12 fM (femtomolar)  [Temperature = 298.15 K]
DOCKED: USER    
DOCKED: USER    (1) Final Intermolecular Energy     =  -22.78 kcal/mol
DOCKED: USER        vdW + Hbond + desolv Energy     =  -18.58 kcal/mol
DOCKED: USER        Electrostatic Energy            =   -4.20 kcal/mol
DOCKED: USER    (2) Final Total Internal Energy     =   -0.60 kcal/mol
DOCKED: USER    (3) Torsional Free Energy           =   +2.39 kcal/mol
DOCKED: USER    (4) Unbound System's Energy  [=(2)] =   -0.60 kcal/mol
DOCKED: USER    
DOCKED: USER    
DOCKED: USER    NEWDPF move ligand.pdbqt
DOCKED: USER    NEWDPF about 54.495000 78.699000 10.493000
DOCKED: USER    NEWDPF tran0 54.331331 78.875732 10.600968
DOCKED: USER    NEWDPF quaternion0 0.006070 0.018628 -0.016633 0.999670
DOCKED: USER    NEWDPF axisangle0 0.236186 0.724825 -0.647182 2.945399
DOCKED: USER    NEWDPF quat0 0.236186 0.724825 -0.647182 2.945399
DOCKED: USER    NEWDPF dihe0 -8.02 -32.33 179.73 164.40 7.12 -8.41 6.57 5.53 
DOCKED: USER  keepresnum = 1 
DOCKED: USER  
DOCKED: REMARK  8 active torsions:
DOCKED: REMARK  status: ('A' for Active; 'I' for Inactive)
DOCKED: REMARK    1  A    between atoms: C2A_3624  and  CAA_3628 
DOCKED: REMARK    2  A    between atoms: CAA_3628  and  CBA_3629 
DOCKED: REMARK    3  A    between atoms: CBA_3629  and  CGA_3630 
DOCKED: REMARK    4  A    between atoms: C3B_3635  and  CAB_3638 
DOCKED: REMARK    5  A    between atoms: C3C_3642  and  CAC_3645 
DOCKED: REMARK    6  A    between atoms: C3D_3649  and  CAD_3652 
DOCKED: REMARK    7  A    between atoms: CAD_3652  and  CBD_3653 
DOCKED: REMARK    8  A    between atoms: CBD_3653  and  CGD_3654 
DOCKED: USER                              x       y       z     vdW  Elec       q    Type
DOCKED: USER                           _______ _______ _______ _____ _____    ______ ____
DOCKED: ROOT
DOCKED: ATOM      1  CHA HEM A1501      54.203  81.199  10.157 -0.28 +0.04    +0.038 A 
DOCKED: ATOM      2  CHB HEM A1501      55.002  78.609  14.131 -0.39 +0.02    +0.038 A 
DOCKED: ATOM      3  CHC HEM A1501      55.476  74.617  11.463 -0.40 +0.01    +0.038 A 
DOCKED: ATOM      4  CHD HEM A1501      54.610  77.199   7.488 -0.38 +0.03    +0.038 A 
DOCKED: ATOM      5  C1A HEM A1501      54.353  80.841  11.493 -0.23 +0.07    +0.079 A 
DOCKED: ATOM      6  C2A HEM A1501      54.247  81.726  12.658 -0.34 -0.01    -0.006 A 
DOCKED: ATOM      7  C3A HEM A1501      54.474  80.988  13.734 -0.39 -0.00    -0.007 A 
DOCKED: ATOM      8  C4A HEM A1501      54.710  79.653  13.275 -0.32 +0.05    +0.079 A 
DOCKED: ATOM      9  CMA HEM A1501      54.466  81.436  15.164 -0.48 +0.02    +0.032 C 
DOCKED: ATOM     10  C1B HEM A1501      55.233  77.296  13.763 -0.33 +0.03    +0.079 A 
DOCKED: ATOM     11  C2B HEM A1501      55.558  76.232  14.706 -0.40 -0.00    -0.003 A 
DOCKED: ATOM     12  C3B HEM A1501      55.706  75.114  13.947 -0.38 +0.01    +0.015 A 
DOCKED: ATOM     13  C4B HEM A1501      55.447  75.493  12.561 -0.32 +0.03    +0.083 A 
DOCKED: ATOM     14  CMB HEM A1501      55.692  76.412  16.193 -0.54 +0.01    +0.033 C 
DOCKED: ATOM     15  C1C HEM A1501      55.259  74.908  10.143 -0.36 +0.03    +0.079 A 
DOCKED: ATOM     16  C2C HEM A1501      55.221  73.948   9.075 -0.46 -0.00    -0.003 A 
DOCKED: ATOM     17  C3C HEM A1501      54.961  74.650   7.942 -0.45 +0.01    +0.015 A 
DOCKED: ATOM     18  C4C HEM A1501      54.849  76.067   8.339 -0.35 +0.05    +0.083 A 
DOCKED: ATOM     19  CMC HEM A1501      55.440  72.461   9.273 -0.53 +0.01    +0.033 C 
DOCKED: ATOM     20  C1D HEM A1501      54.473  78.563   7.846 -0.32 +0.06    +0.079 A 
DOCKED: ATOM     21  C2D HEM A1501      54.229  79.633   6.927 -0.36 -0.01    -0.007 A 
DOCKED: ATOM     22  C3D HEM A1501      54.114  80.761   7.673 -0.35 -0.01    -0.006 A 
DOCKED: ATOM     23  C4D HEM A1501      54.283  80.376   9.061 -0.26 +0.08    +0.079 A 
DOCKED: ATOM     24  CMD HEM A1501      54.120  79.528   5.458 -0.48 +0.03    +0.032 C 
DOCKED: ATOM     25  NA  HEM A1501      54.608  79.564  11.918 -0.12 -0.18    -0.246 N 
DOCKED: ATOM     26  NB  HEM A1501      55.189  76.816  12.476 -0.12 -0.11    -0.246 N 
DOCKED: ATOM     27  NC  HEM A1501      55.009  76.150   9.661 -0.08 -0.12    -0.246 N 
DOCKED: ATOM     28  ND  HEM A1501      54.496  79.035   9.128 -0.18 -0.20    -0.246 N 
DOCKED: ATOM     29 FE   HEM A1501      54.816  77.885  10.775 -0.07 +0.00    +0.000 Fe
DOCKED: ENDROOT
DOCKED: BRANCH  22  30
DOCKED: ATOM     30  CAD HEM A1501      53.861  82.108   7.107 -0.44 +0.06    +0.039 C 
DOCKED: BRANCH  30  31
DOCKED: ATOM     31  CBD HEM A1501      52.367  82.421   7.026 -0.57 +0.16    +0.102 C 
DOCKED: BRANCH  31  32
DOCKED: ATOM     32  CGD HEM A1501      52.070  83.692   6.252 -0.63 +0.36    +0.186 C 
DOCKED: ATOM     33  O1D HEM A1501      52.922  84.585   6.449 -1.17 -1.70    -0.647 OA
DOCKED: ATOM     34  O2D HEM A1501      51.054  83.802   5.433 -1.06 -1.34    -0.647 OA
DOCKED: ENDBRANCH  31  32
DOCKED: ENDBRANCH  30  31
DOCKED: ENDBRANCH  22  30
DOCKED: BRANCH   6  35
DOCKED: ATOM     35  CAA HEM A1501      53.938  83.182  12.673 -0.42 +0.04    +0.039 C 
DOCKED: BRANCH  35  36
DOCKED: ATOM     36  CBA HEM A1501      52.511  83.448  13.112 -0.52 +0.11    +0.102 C 
DOCKED: BRANCH  36  37
DOCKED: ATOM     37  CGA HEM A1501      52.219  84.888  13.432 -0.48 +0.27    +0.186 C 
DOCKED: ATOM     38  O1A HEM A1501      53.186  85.671  13.584 -0.43 -1.18    -0.647 OA
DOCKED: ATOM     39  O2A HEM A1501      51.027  85.254  13.488 -0.75 -0.92    -0.647 OA
DOCKED: ENDBRANCH  36  37
DOCKED: ENDBRANCH  35  36
DOCKED: ENDBRANCH   6  35
DOCKED: BRANCH  17  40
DOCKED: ATOM     40  CAC HEM A1501      54.821  74.147   6.571 -0.60 +0.00    +0.001 C 
DOCKED: ATOM     41  CBC HEM A1501      53.695  74.106   5.841 -0.66 +0.00    +0.000 C 
DOCKED: ENDBRANCH  17  40
DOCKED: BRANCH  12  42
DOCKED: ATOM     42  CAB HEM A1501      56.049  73.723  14.319 -0.56 +0.00    +0.001 C 
DOCKED: ATOM     43  CBB HEM A1501      57.089  73.245  14.974 -0.62 +0.00    +0.000 C 
DOCKED: ENDBRANCH  12  42
DOCKED: TORSDOF 8
DOCKED: TER
DOCKED: ENDMDL
________________________________________________________________________________


	BEGINNING GENETIC ALGORITHM DOCKING 78 of 100
Run: 78 Seed: 1675386359 1723420943 [ Run 78 of 100 GA/GALS ]
Beginning LAMARCKIAN GENETIC ALGORITHM (LGA), with a maximum of 2500000 energy evaluations.

Final-Value: -23.423


	FINAL GENETIC ALGORITHM DOCKED STATE
	_______________________________________________


Detailed state:  trans 54.906 79.133 10.790 quatxyzw -0.192523 0.966069 -0.168207 -0.036778 center 54.495 78.699 10.493 ntor 8 180.0000 -70.6280 -150.2184 176.7843 -10.9875 4.4158 -163.2953 148.6950
State:	 54.906  79.133  10.790  -0.193  0.967 -0.168 -175.785    180.00  -70.63 -150.22  176.78  -10.99    4.42 -163.30  148.70

DOCKED: MODEL       78
DOCKED: USER    Run = 78
DOCKED: USER    DPF = C:/Users/georg/Desktop/Dock/executables_autodock_tools/receptor.dpf
DOCKED: USER  
DOCKED: USER    Estimated Free Energy of Binding    =  -20.47 kcal/mol  [=(1)+(2)+(3)-(4)]
DOCKED: USER    Estimated Inhibition Constant, Ki   =  993.61 aM (attomolar)  [Temperature = 298.15 K]
DOCKED: USER    
DOCKED: USER    (1) Final Intermolecular Energy     =  -22.85 kcal/mol
DOCKED: USER        vdW + Hbond + desolv Energy     =  -18.68 kcal/mol
DOCKED: USER        Electrostatic Energy            =   -4.17 kcal/mol
DOCKED: USER    (2) Final Total Internal Energy     =   -0.57 kcal/mol
DOCKED: USER    (3) Torsional Free Energy           =   +2.39 kcal/mol
DOCKED: USER    (4) Unbound System's Energy  [=(2)] =   -0.57 kcal/mol
DOCKED: USER    
DOCKED: USER    
DOCKED: USER    NEWDPF move ligand.pdbqt
DOCKED: USER    NEWDPF about 54.495000 78.699000 10.493000
DOCKED: USER    NEWDPF tran0 54.906088 79.132695 10.790387
DOCKED: USER    NEWDPF quaternion0 -0.192523 0.966069 -0.168207 -0.036778
DOCKED: USER    NEWDPF axisangle0 -0.192653 0.966723 -0.168321 -175.784559
DOCKED: USER    NEWDPF quat0 -0.192653 0.966723 -0.168321 -175.784559
DOCKED: USER    NEWDPF dihe0 180.00 -70.63 -150.22 176.78 -10.99 4.42 -163.30 148.70 
DOCKED: USER  keepresnum = 1 
DOCKED: USER  
DOCKED: REMARK  8 active torsions:
DOCKED: REMARK  status: ('A' for Active; 'I' for Inactive)
DOCKED: REMARK    1  A    between atoms: C2A_3624  and  CAA_3628 
DOCKED: REMARK    2  A    between atoms: CAA_3628  and  CBA_3629 
DOCKED: REMARK    3  A    between atoms: CBA_3629  and  CGA_3630 
DOCKED: REMARK    4  A    between atoms: C3B_3635  and  CAB_3638 
DOCKED: REMARK    5  A    between atoms: C3C_3642  and  CAC_3645 
DOCKED: REMARK    6  A    between atoms: C3D_3649  and  CAD_3652 
DOCKED: REMARK    7  A    between atoms: CAD_3652  and  CBD_3653 
DOCKED: REMARK    8  A    between atoms: CBD_3653  and  CGD_3654 
DOCKED: USER                              x       y       z     vdW  Elec       q    Type
DOCKED: USER                           _______ _______ _______ _____ _____    ______ ____
DOCKED: ROOT
DOCKED: ATOM      1  CHA HEM A1501      54.073  81.314  10.387 -0.29 +0.04    +0.038 A 
DOCKED: ATOM      2  CHB HEM A1501      54.770  77.450   7.607 -0.34 +0.03    +0.038 A 
DOCKED: ATOM      3  CHC HEM A1501      55.605  74.754  11.521 -0.39 +0.01    +0.038 A 
DOCKED: ATOM      4  CHD HEM A1501      54.972  78.638  14.301 -0.39 +0.02    +0.038 A 
DOCKED: ATOM      5  C1A HEM A1501      54.217  80.500   9.269 -0.26 +0.08    +0.079 A 
DOCKED: ATOM      6  C2A HEM A1501      54.094  80.905   7.865 -0.35 -0.01    -0.006 A 
DOCKED: ATOM      7  C3A HEM A1501      54.287  79.823   7.124 -0.35 -0.01    -0.007 A 
DOCKED: ATOM      8  C4A HEM A1501      54.541  78.745   8.031 -0.30 +0.06    +0.079 A 
DOCKED: ATOM      9  CMA HEM A1501      54.272  79.728   5.629 -0.47 +0.03    +0.032 C 
DOCKED: ATOM     10  C1B HEM A1501      55.030  76.362   8.420 -0.31 +0.05    +0.079 A 
DOCKED: ATOM     11  C2B HEM A1501      55.246  75.009   7.924 -0.45 -0.00    -0.003 A 
DOCKED: ATOM     12  C3B HEM A1501      55.465  74.252   9.030 -0.43 +0.01    +0.015 A 
DOCKED: ATOM     13  C4B HEM A1501      55.407  75.144  10.184 -0.34 +0.03    +0.083 A 
DOCKED: ATOM     14  CMB HEM A1501      55.211  74.609   6.474 -0.57 +0.02    +0.033 C 
DOCKED: ATOM     15  C1C HEM A1501      55.551  75.533  12.645 -0.33 +0.03    +0.079 A 
DOCKED: ATOM     16  C2C HEM A1501      55.846  75.088  13.979 -0.41 -0.00    -0.003 A 
DOCKED: ATOM     17  C3C HEM A1501      55.690  76.172  14.783 -0.40 +0.01    +0.015 A 
DOCKED: ATOM     18  C4C HEM A1501      55.284  77.291  13.911 -0.33 +0.03    +0.083 A 
DOCKED: ATOM     19  CMC HEM A1501      56.244  73.667  14.322 -0.55 +0.01    +0.033 C 
DOCKED: ATOM     20  C1D HEM A1501      54.606  79.735  13.484 -0.34 +0.05    +0.079 A 
DOCKED: ATOM     21  C2D HEM A1501      54.316  81.053  13.960 -0.41 -0.00    -0.007 A 
DOCKED: ATOM     22  C3D HEM A1501      54.061  81.810  12.862 -0.37 -0.01    -0.006 A 
DOCKED: ATOM     23  C4D HEM A1501      54.203  80.948  11.705 -0.24 +0.07    +0.079 A 
DOCKED: ATOM     24  CMD HEM A1501      54.301  81.501  15.367 -0.43 +0.02    +0.032 C 
DOCKED: ATOM     25  NA  HEM A1501      54.525  79.166   9.328 -0.17 -0.20    -0.246 N 
DOCKED: ATOM     26  NB  HEM A1501      55.121  76.403   9.791 -0.05 -0.12    -0.246 N 
DOCKED: ATOM     27  NC  HEM A1501      55.245  76.854  12.651 -0.16 -0.11    -0.246 N 
DOCKED: ATOM     28  ND  HEM A1501      54.537  79.698  12.119 -0.14 -0.18    -0.246 N 
DOCKED: ATOM     29 FE   HEM A1501      54.866  78.036  10.994 -0.07 +0.00    +0.000 Fe
DOCKED: ENDROOT
DOCKED: BRANCH  22  30
DOCKED: ATOM     30  CAD HEM A1501      53.710  83.249  12.910 -0.46 +0.04    +0.039 C 
DOCKED: BRANCH  30  31
DOCKED: ATOM     31  CBD HEM A1501      52.244  83.467  13.287 -0.52 +0.11    +0.102 C 
DOCKED: BRANCH  31  32
DOCKED: ATOM     32  CGD HEM A1501      51.912  84.923  13.554 -0.51 +0.26    +0.186 C 
DOCKED: ATOM     33  O1D HEM A1501      52.925  85.656  13.553 -0.43 -1.21    -0.647 OA
DOCKED: ATOM     34  O2D HEM A1501      50.684  85.353  13.714 -1.00 -0.90    -0.647 OA
DOCKED: ENDBRANCH  31  32
DOCKED: ENDBRANCH  30  31
DOCKED: ENDBRANCH  22  30
DOCKED: BRANCH   6  35
DOCKED: ATOM     35  CAA HEM A1501      53.812  82.264   7.328 -0.44 +0.06    +0.039 C 
DOCKED: BRANCH  35  36
DOCKED: ATOM     36  CBA HEM A1501      52.455  82.331   6.655 -0.58 +0.16    +0.102 C 
DOCKED: BRANCH  36  37
DOCKED: ATOM     37  CGA HEM A1501      52.114  83.679   6.082 -0.64 +0.35    +0.186 C 
DOCKED: ATOM     38  O1A HEM A1501      52.932  84.615   6.236 -1.16 -1.65    -0.647 OA
DOCKED: ATOM     39  O2A HEM A1501      51.052  83.797   5.436 -1.06 -1.34    -0.647 OA
DOCKED: ENDBRANCH  36  37
DOCKED: ENDBRANCH  35  36
DOCKED: ENDBRANCH   6  35
DOCKED: BRANCH  17  40
DOCKED: ATOM     40  CAC HEM A1501      55.869  76.260  16.237 -0.58 +0.00    +0.001 C 
DOCKED: ATOM     41  CBC HEM A1501      55.191  75.577  17.173 -0.66 +0.00    +0.000 C 
DOCKED: ENDBRANCH  17  40
DOCKED: BRANCH  12  42
DOCKED: ATOM     42  CAB HEM A1501      55.732  72.803   9.183 -0.43 +0.00    +0.001 C 
DOCKED: ATOM     43  CBB HEM A1501      54.907  71.803   9.424 -0.57 +0.00    +0.000 C 
DOCKED: ENDBRANCH  12  42
DOCKED: TORSDOF 8
DOCKED: TER
DOCKED: ENDMDL
________________________________________________________________________________


	BEGINNING GENETIC ALGORITHM DOCKING 79 of 100
Run: 79 Seed: 212185486 423661923 [ Run 79 of 100 GA/GALS ]
Beginning LAMARCKIAN GENETIC ALGORITHM (LGA), with a maximum of 2500000 energy evaluations.

Final-Value: -23.240


	FINAL GENETIC ALGORITHM DOCKED STATE
	_______________________________________________


Detailed state:  trans 54.974 78.691 10.567 quatxyzw -0.153460 0.976344 -0.152268 -0.004001 center 54.495 78.699 10.493 ntor 8 112.5472 168.6807 -111.9970 121.7037 4.5175 23.3445 -179.8192 174.4453
State:	 54.974  78.691  10.567  -0.153  0.976 -0.152 -179.542    112.55  168.68 -112.00  121.70    4.52   23.34 -179.82  174.45

DOCKED: MODEL       79
DOCKED: USER    Run = 79
DOCKED: USER    DPF = C:/Users/georg/Desktop/Dock/executables_autodock_tools/receptor.dpf
DOCKED: USER  
DOCKED: USER    Estimated Free Energy of Binding    =  -20.31 kcal/mol  [=(1)+(2)+(3)-(4)]
DOCKED: USER    Estimated Inhibition Constant, Ki   =    1.29 fM (femtomolar)  [Temperature = 298.15 K]
DOCKED: USER    
DOCKED: USER    (1) Final Intermolecular Energy     =  -22.70 kcal/mol
DOCKED: USER        vdW + Hbond + desolv Energy     =  -18.20 kcal/mol
DOCKED: USER        Electrostatic Energy            =   -4.50 kcal/mol
DOCKED: USER    (2) Final Total Internal Energy     =   -0.54 kcal/mol
DOCKED: USER    (3) Torsional Free Energy           =   +2.39 kcal/mol
DOCKED: USER    (4) Unbound System's Energy  [=(2)] =   -0.54 kcal/mol
DOCKED: USER    
DOCKED: USER    
DOCKED: USER    NEWDPF move ligand.pdbqt
DOCKED: USER    NEWDPF about 54.495000 78.699000 10.493000
DOCKED: USER    NEWDPF tran0 54.973808 78.691216 10.567367
DOCKED: USER    NEWDPF quaternion0 -0.153460 0.976344 -0.152268 -0.004001
DOCKED: USER    NEWDPF axisangle0 -0.153461 0.976352 -0.152270 -179.541528
DOCKED: USER    NEWDPF quat0 -0.153461 0.976352 -0.152270 -179.541528
DOCKED: USER    NEWDPF dihe0 112.55 168.68 -112.00 121.70 4.52 23.34 -179.82 174.45 
DOCKED: USER  keepresnum = 1 
DOCKED: USER  
DOCKED: REMARK  8 active torsions:
DOCKED: REMARK  status: ('A' for Active; 'I' for Inactive)
DOCKED: REMARK    1  A    between atoms: C2A_3624  and  CAA_3628 
DOCKED: REMARK    2  A    between atoms: CAA_3628  and  CBA_3629 
DOCKED: REMARK    3  A    between atoms: CBA_3629  and  CGA_3630 
DOCKED: REMARK    4  A    between atoms: C3B_3635  and  CAB_3638 
DOCKED: REMARK    5  A    between atoms: C3C_3642  and  CAC_3645 
DOCKED: REMARK    6  A    between atoms: C3D_3649  and  CAD_3652 
DOCKED: REMARK    7  A    between atoms: CAD_3652  and  CBD_3653 
DOCKED: REMARK    8  A    between atoms: CBD_3653  and  CGD_3654 
DOCKED: USER                              x       y       z     vdW  Elec       q    Type
DOCKED: USER                           _______ _______ _______ _____ _____    ______ ____
DOCKED: ROOT
DOCKED: ATOM      1  CHA HEM A1501      54.319  80.947  10.261 -0.26 +0.04    +0.038 A 
DOCKED: ATOM      2  CHB HEM A1501      54.510  77.114   7.361 -0.40 +0.03    +0.038 A 
DOCKED: ATOM      3  CHC HEM A1501      55.316  74.250  11.160 -0.40 +0.01    +0.038 A 
DOCKED: ATOM      4  CHD HEM A1501      55.192  78.098  14.057 -0.38 +0.02    +0.038 A 
DOCKED: ATOM      5  C1A HEM A1501      54.327  80.154   9.119 -0.25 +0.08    +0.079 A 
DOCKED: ATOM      6  C2A HEM A1501      54.162  80.607   7.733 -0.34 -0.01    -0.006 A 
DOCKED: ATOM      7  C3A HEM A1501      54.216  79.532   6.960 -0.36 -0.01    -0.007 A 
DOCKED: ATOM      8  C4A HEM A1501      54.422  78.412   7.826 -0.33 +0.06    +0.079 A 
DOCKED: ATOM      9  CMA HEM A1501      54.108  79.480   5.466 -0.48 +0.03    +0.032 C 
DOCKED: ATOM     10  C1B HEM A1501      54.716  75.986   8.133 -0.37 +0.04    +0.079 A 
DOCKED: ATOM     11  C2B HEM A1501      54.781  74.632   7.596 -0.47 -0.00    -0.003 A 
DOCKED: ATOM     12  C3B HEM A1501      54.993  73.829   8.671 -0.45 +0.01    +0.015 A 
DOCKED: ATOM     13  C4B HEM A1501      55.080  74.692   9.846 -0.38 +0.03    +0.083 A 
DOCKED: ATOM     14  CMB HEM A1501      54.630  74.277   6.142 -0.59 +0.02    +0.033 C 
DOCKED: ATOM     15  C1C HEM A1501      55.395  75.000  12.302 -0.35 +0.03    +0.079 A 
DOCKED: ATOM     16  C2C HEM A1501      55.723  74.495  13.607 -0.42 -0.00    -0.003 A 
DOCKED: ATOM     17  C3C HEM A1501      55.711  75.566  14.442 -0.37 +0.01    +0.015 A 
DOCKED: ATOM     18  C4C HEM A1501      55.359  76.740  13.620 -0.31 +0.03    +0.083 A 
DOCKED: ATOM     19  CMC HEM A1501      56.011  73.036  13.895 -0.53 +0.01    +0.033 C 
DOCKED: ATOM     20  C1D HEM A1501      54.880  79.245  13.287 -0.31 +0.04    +0.079 A 
DOCKED: ATOM     21  C2D HEM A1501      54.736  80.570  13.807 -0.38 -0.00    -0.007 A 
DOCKED: ATOM     22  C3D HEM A1501      54.490  81.376  12.743 -0.31 -0.00    -0.006 A 
DOCKED: ATOM     23  C4D HEM A1501      54.489  80.537  11.561 -0.21 +0.07    +0.079 A 
DOCKED: ATOM     24  CMD HEM A1501      54.840  80.979  15.223 -0.44 +0.01    +0.032 C 
DOCKED: ATOM     25  NA  HEM A1501      54.516  78.798   9.130 -0.17 -0.19    -0.246 N 
DOCKED: ATOM     26  NB  HEM A1501      54.886  75.981   9.497 -0.14 -0.12    -0.246 N 
DOCKED: ATOM     27  NC  HEM A1501      55.210  76.342  12.355 -0.14 -0.10    -0.246 N 
DOCKED: ATOM     28  ND  HEM A1501      54.732  79.250  11.928 -0.10 -0.17    -0.246 N 
DOCKED: ATOM     29 FE   HEM A1501      54.847  77.597  10.749 -0.07 +0.00    +0.000 Fe
DOCKED: ENDROOT
DOCKED: BRANCH  22  30
DOCKED: ATOM     30  CAD HEM A1501      54.272  82.839  12.843 -0.37 +0.04    +0.039 C 
DOCKED: BRANCH  30  31
DOCKED: ATOM     31  CBD HEM A1501      52.787  83.192  12.907 -0.50 +0.11    +0.102 C 
DOCKED: BRANCH  31  32
DOCKED: ATOM     32  CGD HEM A1501      52.531  84.687  12.850 -0.42 +0.28    +0.186 C 
DOCKED: ATOM     33  O1D HEM A1501      53.388  85.296  12.174 -0.58 -1.52    -0.647 OA
DOCKED: ATOM     34  O2D HEM A1501      51.490  85.250  13.413 -0.57 -0.97    -0.647 OA
DOCKED: ENDBRANCH  31  32
DOCKED: ENDBRANCH  30  31
DOCKED: ENDBRANCH  22  30
DOCKED: BRANCH   6  35
DOCKED: ATOM     35  CAA HEM A1501      53.974  82.000   7.244 -0.42 +0.05    +0.039 C 
DOCKED: BRANCH  35  36
DOCKED: ATOM     36  CBA HEM A1501      52.512  82.401   7.243 -0.55 +0.16    +0.102 C 
DOCKED: BRANCH  36  37
DOCKED: ATOM     37  CGA HEM A1501      52.192  83.577   6.361 -0.62 +0.35    +0.186 C 
DOCKED: ATOM     38  O1A HEM A1501      52.800  84.653   6.562 -1.09 -1.75    -0.647 OA
DOCKED: ATOM     39  O2A HEM A1501      51.370  83.417   5.436 -1.05 -1.22    -0.647 OA
DOCKED: ENDBRANCH  36  37
DOCKED: ENDBRANCH  35  36
DOCKED: ENDBRANCH   6  35
DOCKED: BRANCH  17  40
DOCKED: ATOM     40  CAC HEM A1501      55.978  75.598  15.885 -0.55 +0.00    +0.001 C 
DOCKED: ATOM     41  CBC HEM A1501      55.201  76.143  16.834 -0.62 +0.00    +0.000 C 
DOCKED: ENDBRANCH  17  40
DOCKED: BRANCH  12  42
DOCKED: ATOM     42  CAB HEM A1501      55.136  72.359   8.776 -0.56 +0.00    +0.001 C 
DOCKED: ATOM     43  CBB HEM A1501      55.889  71.629   9.574 -0.57 +0.00    +0.000 C 
DOCKED: ENDBRANCH  12  42
DOCKED: TORSDOF 8
DOCKED: TER
DOCKED: ENDMDL
________________________________________________________________________________


	BEGINNING GENETIC ALGORITHM DOCKING 80 of 100
Run: 80 Seed: 1070159015 2028637655 [ Run 80 of 100 GA/GALS ]
Beginning LAMARCKIAN GENETIC ALGORITHM (LGA), with a maximum of 2500000 energy evaluations.

Final-Value: -23.101


	FINAL GENETIC ALGORITHM DOCKED STATE
	_______________________________________________


Detailed state:  trans 54.268 78.939 10.731 quatxyzw -0.028705 0.008592 -0.021279 0.999324 center 54.495 78.699 10.493 ntor 8 1.4518 -6.0774 25.4942 -176.4882 13.7378 2.8031 -16.8163 -9.3265
State:	 54.268  78.939  10.731  -0.781  0.234 -0.579  4.212      1.45   -6.08   25.49 -176.49   13.74    2.80  -16.82   -9.33

DOCKED: MODEL       80
DOCKED: USER    Run = 80
DOCKED: USER    DPF = C:/Users/georg/Desktop/Dock/executables_autodock_tools/receptor.dpf
DOCKED: USER  
DOCKED: USER    Estimated Free Energy of Binding    =  -20.15 kcal/mol  [=(1)+(2)+(3)-(4)]
DOCKED: USER    Estimated Inhibition Constant, Ki   =    1.70 fM (femtomolar)  [Temperature = 298.15 K]
DOCKED: USER    
DOCKED: USER    (1) Final Intermolecular Energy     =  -22.54 kcal/mol
DOCKED: USER        vdW + Hbond + desolv Energy     =  -18.23 kcal/mol
DOCKED: USER        Electrostatic Energy            =   -4.31 kcal/mol
DOCKED: USER    (2) Final Total Internal Energy     =   -0.56 kcal/mol
DOCKED: USER    (3) Torsional Free Energy           =   +2.39 kcal/mol
DOCKED: USER    (4) Unbound System's Energy  [=(2)] =   -0.56 kcal/mol
DOCKED: USER    
DOCKED: USER    
DOCKED: USER    NEWDPF move ligand.pdbqt
DOCKED: USER    NEWDPF about 54.495000 78.699000 10.493000
DOCKED: USER    NEWDPF tran0 54.268359 78.939305 10.731465
DOCKED: USER    NEWDPF quaternion0 -0.028705 0.008592 -0.021279 0.999324
DOCKED: USER    NEWDPF axisangle0 -0.781084 0.233791 -0.579007 4.212270
DOCKED: USER    NEWDPF quat0 -0.781084 0.233791 -0.579007 4.212270
DOCKED: USER    NEWDPF dihe0 1.45 -6.08 25.49 -176.49 13.74 2.80 -16.82 -9.33 
DOCKED: USER  keepresnum = 1 
DOCKED: USER  
DOCKED: REMARK  8 active torsions:
DOCKED: REMARK  status: ('A' for Active; 'I' for Inactive)
DOCKED: REMARK    1  A    between atoms: C2A_3624  and  CAA_3628 
DOCKED: REMARK    2  A    between atoms: CAA_3628  and  CBA_3629 
DOCKED: REMARK    3  A    between atoms: CBA_3629  and  CGA_3630 
DOCKED: REMARK    4  A    between atoms: C3B_3635  and  CAB_3638 
DOCKED: REMARK    5  A    between atoms: C3C_3642  and  CAC_3645 
DOCKED: REMARK    6  A    between atoms: C3D_3649  and  CAD_3652 
DOCKED: REMARK    7  A    between atoms: CAD_3652  and  CBD_3653 
DOCKED: REMARK    8  A    between atoms: CBD_3653  and  CGD_3654 
DOCKED: USER                              x       y       z     vdW  Elec       q    Type
DOCKED: USER                           _______ _______ _______ _____ _____    ______ ____
DOCKED: ROOT
DOCKED: ATOM      1  CHA HEM A1501      54.108  81.286  10.452 -0.28 +0.04    +0.038 A 
DOCKED: ATOM      2  CHB HEM A1501      55.018  78.437  14.220 -0.39 +0.02    +0.038 A 
DOCKED: ATOM      3  CHC HEM A1501      55.473  74.644  11.273 -0.40 +0.01    +0.038 A 
DOCKED: ATOM      4  CHD HEM A1501      54.496  77.484   7.505 -0.39 +0.03    +0.038 A 
DOCKED: ATOM      5  C1A HEM A1501      54.290  80.839  11.756 -0.24 +0.07    +0.079 A 
DOCKED: ATOM      6  C2A HEM A1501      54.200  81.640  12.981 -0.36 -0.00    -0.006 A 
DOCKED: ATOM      7  C3A HEM A1501      54.458  80.832  14.000 -0.41 -0.00    -0.007 A 
DOCKED: ATOM      8  C4A HEM A1501      54.697  79.535  13.445 -0.33 +0.05    +0.079 A 
DOCKED: ATOM      9  CMA HEM A1501      54.476  81.181  15.457 -0.44 +0.01    +0.032 C 
DOCKED: ATOM     10  C1B HEM A1501      55.254  77.156  13.758 -0.32 +0.03    +0.079 A 
DOCKED: ATOM     11  C2B HEM A1501      55.609  76.033  14.617 -0.39 -0.00    -0.003 A 
DOCKED: ATOM     12  C3B HEM A1501      55.752  74.972  13.781 -0.40 +0.01    +0.015 A 
DOCKED: ATOM     13  C4B HEM A1501      55.459  75.443  12.430 -0.32 +0.03    +0.083 A 
DOCKED: ATOM     14  CMB HEM A1501      55.774  76.112  16.110 -0.54 +0.01    +0.033 C 
DOCKED: ATOM     15  C1C HEM A1501      55.225  75.023   9.981 -0.36 +0.03    +0.079 A 
DOCKED: ATOM     16  C2C HEM A1501      55.173  74.138   8.850 -0.46 -0.00    -0.003 A 
DOCKED: ATOM     17  C3C HEM A1501      54.882  74.914   7.775 -0.46 +0.01    +0.015 A 
DOCKED: ATOM     18  C4C HEM A1501      54.764  76.299   8.271 -0.35 +0.05    +0.083 A 
DOCKED: ATOM     19  CMC HEM A1501      55.410  72.644   8.941 -0.51 +0.01    +0.033 C 
DOCKED: ATOM     20  C1D HEM A1501      54.354  78.819   7.959 -0.32 +0.07    +0.079 A 
DOCKED: ATOM     21  C2D HEM A1501      54.079  79.947   7.121 -0.36 -0.01    -0.007 A 
DOCKED: ATOM     22  C3D HEM A1501      53.970  81.020   7.946 -0.36 -0.01    -0.006 A 
DOCKED: ATOM     23  C4D HEM A1501      54.172  80.542   9.300 -0.26 +0.08    +0.079 A 
DOCKED: ATOM     24  CMD HEM A1501      53.939  79.941   5.651 -0.47 +0.03    +0.032 C 
DOCKED: ATOM     25  NA  HEM A1501      54.567  79.538  12.087 -0.12 -0.18    -0.246 N 
DOCKED: ATOM     26  NB  HEM A1501      55.186  76.765  12.442 -0.11 -0.11    -0.246 N 
DOCKED: ATOM     27  NC  HEM A1501      54.952  76.293   9.592 -0.05 -0.12    -0.246 N 
DOCKED: ATOM     28  ND  HEM A1501      54.399  79.202   9.270 -0.18 -0.21    -0.246 N 
DOCKED: ATOM     29 FE   HEM A1501      54.766  77.945  10.826 -0.07 +0.00    +0.000 Fe
DOCKED: ENDROOT
DOCKED: BRANCH  22  30
DOCKED: ATOM     30  CAD HEM A1501      53.691  82.399   7.480 -0.39 +0.06    +0.039 C 
DOCKED: BRANCH  30  31
DOCKED: ATOM     31  CBD HEM A1501      52.280  82.534   6.908 -0.58 +0.17    +0.102 C 
DOCKED: BRANCH  31  32
DOCKED: ATOM     32  CGD HEM A1501      52.092  83.797   6.089 -0.65 +0.36    +0.186 C 
DOCKED: ATOM     33  O1D HEM A1501      51.022  83.797   5.443 -1.05 -1.36    -0.647 OA
DOCKED: ATOM     34  O2D HEM A1501      52.946  84.791   6.111 -1.03 -1.72    -0.647 OA
DOCKED: ENDBRANCH  31  32
DOCKED: ENDBRANCH  30  31
DOCKED: ENDBRANCH  22  30
DOCKED: BRANCH   6  35
DOCKED: ATOM     35  CAA HEM A1501      53.878  83.088  13.104 -0.43 +0.04    +0.039 C 
DOCKED: BRANCH  35  36
DOCKED: ATOM     36  CBA HEM A1501      52.385  83.321  13.233 -0.50 +0.11    +0.102 C 
DOCKED: BRANCH  36  37
DOCKED: ATOM     37  CGA HEM A1501      51.995  84.765  13.389 -0.51 +0.26    +0.186 C 
DOCKED: ATOM     38  O1A HEM A1501      52.892  85.635  13.310 -0.33 -1.31    -0.647 OA
DOCKED: ATOM     39  O2A HEM A1501      50.787  85.039  13.545 -0.66 -0.86    -0.647 OA
DOCKED: ENDBRANCH  36  37
DOCKED: ENDBRANCH  35  36
DOCKED: ENDBRANCH   6  35
DOCKED: BRANCH  17  40
DOCKED: ATOM     40  CAC HEM A1501      54.716  74.505   6.375 -0.61 +0.00    +0.001 C 
DOCKED: ATOM     41  CBC HEM A1501      53.622  74.665   5.614 -0.66 +0.00    +0.000 C 
DOCKED: ENDBRANCH  17  40
DOCKED: BRANCH  12  42
DOCKED: ATOM     42  CAB HEM A1501      56.116  73.562  14.048 -0.56 +0.00    +0.001 C 
DOCKED: ATOM     43  CBB HEM A1501      56.876  73.040  14.991 -0.63 +0.00    +0.000 C 
DOCKED: ENDBRANCH  12  42
DOCKED: TORSDOF 8
DOCKED: TER
DOCKED: ENDMDL
________________________________________________________________________________


	BEGINNING GENETIC ALGORITHM DOCKING 81 of 100
Run: 81 Seed: 304956768 1804403700 [ Run 81 of 100 GA/GALS ]
Beginning LAMARCKIAN GENETIC ALGORITHM (LGA), with a maximum of 2500000 energy evaluations.

Final-Value: -23.146


	FINAL GENETIC ALGORITHM DOCKED STATE
	_______________________________________________


Detailed state:  trans 54.335 78.729 10.331 quatxyzw -0.037501 -0.018666 0.016423 -0.998987 center 54.495 78.699 10.493 ntor 8 0.4734 -30.9355 143.0763 165.8086 8.4857 -22.0950 38.3169 9.2739
State:	 54.335  78.729  10.331  -0.833 -0.415  0.365 -5.158      0.47  -30.94  143.08  165.81    8.49  -22.09   38.32    9.27

DOCKED: MODEL       81
DOCKED: USER    Run = 81
DOCKED: USER    DPF = C:/Users/georg/Desktop/Dock/executables_autodock_tools/receptor.dpf
DOCKED: USER  
DOCKED: USER    Estimated Free Energy of Binding    =  -20.15 kcal/mol  [=(1)+(2)+(3)-(4)]
DOCKED: USER    Estimated Inhibition Constant, Ki   =    1.70 fM (femtomolar)  [Temperature = 298.15 K]
DOCKED: USER    
DOCKED: USER    (1) Final Intermolecular Energy     =  -22.54 kcal/mol
DOCKED: USER        vdW + Hbond + desolv Energy     =  -18.28 kcal/mol
DOCKED: USER        Electrostatic Energy            =   -4.26 kcal/mol
DOCKED: USER    (2) Final Total Internal Energy     =   -0.61 kcal/mol
DOCKED: USER    (3) Torsional Free Energy           =   +2.39 kcal/mol
DOCKED: USER    (4) Unbound System's Energy  [=(2)] =   -0.61 kcal/mol
DOCKED: USER    
DOCKED: USER    
DOCKED: USER    NEWDPF move ligand.pdbqt
DOCKED: USER    NEWDPF about 54.495000 78.699000 10.493000
DOCKED: USER    NEWDPF tran0 54.334593 78.729394 10.330774
DOCKED: USER    NEWDPF quaternion0 -0.037501 -0.018666 0.016423 -0.998987
DOCKED: USER    NEWDPF axisangle0 -0.833471 -0.414853 0.364998 -5.157625
DOCKED: USER    NEWDPF quat0 -0.833471 -0.414853 0.364998 -5.157625
DOCKED: USER    NEWDPF dihe0 0.47 -30.94 143.08 165.81 8.49 -22.09 38.32 9.27 
DOCKED: USER  keepresnum = 1 
DOCKED: USER  
DOCKED: REMARK  8 active torsions:
DOCKED: REMARK  status: ('A' for Active; 'I' for Inactive)
DOCKED: REMARK    1  A    between atoms: C2A_3624  and  CAA_3628 
DOCKED: REMARK    2  A    between atoms: CAA_3628  and  CBA_3629 
DOCKED: REMARK    3  A    between atoms: CBA_3629  and  CGA_3630 
DOCKED: REMARK    4  A    between atoms: C3B_3635  and  CAB_3638 
DOCKED: REMARK    5  A    between atoms: C3C_3642  and  CAC_3645 
DOCKED: REMARK    6  A    between atoms: C3D_3649  and  CAD_3652 
DOCKED: REMARK    7  A    between atoms: CAD_3652  and  CBD_3653 
DOCKED: REMARK    8  A    between atoms: CBD_3653  and  CGD_3654 
DOCKED: USER                              x       y       z     vdW  Elec       q    Type
DOCKED: USER                           _______ _______ _______ _____ _____    ______ ____
DOCKED: ROOT
DOCKED: ATOM      1  CHA HEM A1501      54.210  81.021   9.742 -0.28 +0.04    +0.038 A 
DOCKED: ATOM      2  CHB HEM A1501      55.001  78.684  13.871 -0.38 +0.02    +0.038 A 
DOCKED: ATOM      3  CHC HEM A1501      55.472  74.531  11.460 -0.40 +0.01    +0.038 A 
DOCKED: ATOM      4  CHD HEM A1501      54.614  76.860   7.330 -0.40 +0.02    +0.038 A 
DOCKED: ATOM      5  C1A HEM A1501      54.358  80.747  11.097 -0.21 +0.07    +0.079 A 
DOCKED: ATOM      6  C2A HEM A1501      54.252  81.703  12.204 -0.32 -0.01    -0.006 A 
DOCKED: ATOM      7  C3A HEM A1501      54.477  81.034  13.326 -0.36 -0.00    -0.007 A 
DOCKED: ATOM      8  C4A HEM A1501      54.711  79.672  12.951 -0.28 +0.05    +0.079 A 
DOCKED: ATOM      9  CMA HEM A1501      54.468  81.571  14.724 -0.46 +0.02    +0.032 C 
DOCKED: ATOM     10  C1B HEM A1501      55.230  77.350  13.587 -0.32 +0.03    +0.079 A 
DOCKED: ATOM     11  C2B HEM A1501      55.553  76.347  14.595 -0.40 -0.00    -0.003 A 
DOCKED: ATOM     12  C3B HEM A1501      55.700  75.184  13.908 -0.38 +0.01    +0.015 A 
DOCKED: ATOM     13  C4B HEM A1501      55.443  75.475  12.501 -0.32 +0.03    +0.083 A 
DOCKED: ATOM     14  CMB HEM A1501      55.686  76.620  16.068 -0.53 +0.01    +0.033 C 
DOCKED: ATOM     15  C1C HEM A1501      55.257  74.739  10.124 -0.38 +0.03    +0.079 A 
DOCKED: ATOM     16  C2C HEM A1501      55.218  73.714   9.118 -0.47 -0.00    -0.003 A 
DOCKED: ATOM     17  C3C HEM A1501      54.960  74.344   7.943 -0.45 +0.01    +0.015 A 
DOCKED: ATOM     18  C4C HEM A1501      54.850  75.784   8.250 -0.37 +0.04    +0.083 A 
DOCKED: ATOM     19  CMC HEM A1501      55.434  72.243   9.410 -0.54 +0.01    +0.033 C 
DOCKED: ATOM     20  C1D HEM A1501      54.479  78.244   7.601 -0.33 +0.06    +0.079 A 
DOCKED: ATOM     21  C2D HEM A1501      54.237  79.254   6.616 -0.38 -0.01    -0.007 A 
DOCKED: ATOM     22  C3D HEM A1501      54.124  80.428   7.290 -0.35 -0.01    -0.006 A 
DOCKED: ATOM     23  C4D HEM A1501      54.290  80.130   8.699 -0.27 +0.08    +0.079 A 
DOCKED: ATOM     24  CMD HEM A1501      54.130  79.057   5.156 -0.48 +0.02    +0.032 C 
DOCKED: ATOM     25  NA  HEM A1501      54.611  79.499  11.603 -0.09 -0.18    -0.246 N 
DOCKED: ATOM     26  NB  HEM A1501      55.187  76.790  12.333 -0.08 -0.11    -0.246 N 
DOCKED: ATOM     27  NC  HEM A1501      55.009  75.949   9.565 -0.17 -0.12    -0.246 N 
DOCKED: ATOM     28  ND  HEM A1501      54.501  78.796   8.851 -0.20 -0.20    -0.246 N 
DOCKED: ATOM     29 FE   HEM A1501      54.817  77.751  10.567 -0.07 +0.00    +0.000 Fe
DOCKED: ENDROOT
DOCKED: BRANCH  22  30
DOCKED: ATOM     30  CAD HEM A1501      53.873  81.736   6.641 -0.45 +0.05    +0.039 C 
DOCKED: BRANCH  30  31
DOCKED: ATOM     31  CBD HEM A1501      52.613  82.410   7.182 -0.54 +0.16    +0.102 C 
DOCKED: BRANCH  31  32
DOCKED: ATOM     32  CGD HEM A1501      52.191  83.619   6.367 -0.62 +0.36    +0.186 C 
DOCKED: ATOM     33  O1D HEM A1501      52.933  84.607   6.554 -1.16 -1.75    -0.647 OA
DOCKED: ATOM     34  O2D HEM A1501      51.186  83.592   5.527 -0.99 -1.30    -0.647 OA
DOCKED: ENDBRANCH  31  32
DOCKED: ENDBRANCH  30  31
DOCKED: ENDBRANCH  22  30
DOCKED: BRANCH   6  35
DOCKED: ATOM     35  CAA HEM A1501      53.946  83.158  12.128 -0.38 +0.05    +0.039 C 
DOCKED: BRANCH  35  36
DOCKED: ATOM     36  CBA HEM A1501      52.549  83.464  12.634 -0.49 +0.12    +0.102 C 
DOCKED: BRANCH  36  37
DOCKED: ATOM     37  CGA HEM A1501      52.375  84.860  13.166 -0.45 +0.28    +0.186 C 
DOCKED: ATOM     38  O1A HEM A1501      53.401  85.546  13.381 -0.43 -1.21    -0.647 OA
DOCKED: ATOM     39  O2A HEM A1501      51.216  85.293  13.327 -0.69 -0.96    -0.647 OA
DOCKED: ENDBRANCH  36  37
DOCKED: ENDBRANCH  35  36
DOCKED: ENDBRANCH   6  35
DOCKED: BRANCH  17  40
DOCKED: ATOM     40  CAC HEM A1501      54.821  73.756   6.606 -0.59 +0.00    +0.001 C 
DOCKED: ATOM     41  CBC HEM A1501      53.739  73.810   5.813 -0.66 +0.00    +0.000 C 
DOCKED: ENDBRANCH  17  40
DOCKED: BRANCH  12  42
DOCKED: ATOM     42  CAB HEM A1501      56.040  73.817  14.368 -0.55 +0.00    +0.001 C 
DOCKED: ATOM     43  CBB HEM A1501      57.066  73.384  15.073 -0.62 +0.00    +0.000 C 
DOCKED: ENDBRANCH  12  42
DOCKED: TORSDOF 8
DOCKED: TER
DOCKED: ENDMDL
________________________________________________________________________________


	BEGINNING GENETIC ALGORITHM DOCKING 82 of 100
Run: 82 Seed: 201291453 1374489816 [ Run 82 of 100 GA/GALS ]
Beginning LAMARCKIAN GENETIC ALGORITHM (LGA), with a maximum of 2500000 energy evaluations.

Final-Value: -23.017


	FINAL GENETIC ALGORITHM DOCKED STATE
	_______________________________________________


Detailed state:  trans 54.365 78.796 10.640 quatxyzw 0.011865 0.005378 0.000339 -0.999915 center 54.495 78.699 10.493 ntor 8 29.2548 -15.7316 -178.1867 176.7272 11.9382 40.6948 -2.4864 19.7653
State:	 54.365  78.796  10.640   0.910  0.413  0.026 -1.493     29.25  -15.73 -178.19  176.73   11.94   40.69   -2.49   19.77

DOCKED: MODEL       82
DOCKED: USER    Run = 82
DOCKED: USER    DPF = C:/Users/georg/Desktop/Dock/executables_autodock_tools/receptor.dpf
DOCKED: USER  
DOCKED: USER    Estimated Free Energy of Binding    =  -20.14 kcal/mol  [=(1)+(2)+(3)-(4)]
DOCKED: USER    Estimated Inhibition Constant, Ki   =    1.72 fM (femtomolar)  [Temperature = 298.15 K]
DOCKED: USER    
DOCKED: USER    (1) Final Intermolecular Energy     =  -22.53 kcal/mol
DOCKED: USER        vdW + Hbond + desolv Energy     =  -18.33 kcal/mol
DOCKED: USER        Electrostatic Energy            =   -4.20 kcal/mol
DOCKED: USER    (2) Final Total Internal Energy     =   -0.49 kcal/mol
DOCKED: USER    (3) Torsional Free Energy           =   +2.39 kcal/mol
DOCKED: USER    (4) Unbound System's Energy  [=(2)] =   -0.49 kcal/mol
DOCKED: USER    
DOCKED: USER    
DOCKED: USER    NEWDPF move ligand.pdbqt
DOCKED: USER    NEWDPF about 54.495000 78.699000 10.493000
DOCKED: USER    NEWDPF tran0 54.364614 78.796068 10.640430
DOCKED: USER    NEWDPF quaternion0 0.011865 0.005378 0.000339 -0.999915
DOCKED: USER    NEWDPF axisangle0 0.910498 0.412694 0.026013 -1.493342
DOCKED: USER    NEWDPF quat0 0.910498 0.412694 0.026013 -1.493342
DOCKED: USER    NEWDPF dihe0 29.25 -15.73 -178.19 176.73 11.94 40.69 -2.49 19.77 
DOCKED: USER  keepresnum = 1 
DOCKED: USER  
DOCKED: REMARK  8 active torsions:
DOCKED: REMARK  status: ('A' for Active; 'I' for Inactive)
DOCKED: REMARK    1  A    between atoms: C2A_3624  and  CAA_3628 
DOCKED: REMARK    2  A    between atoms: CAA_3628  and  CBA_3629 
DOCKED: REMARK    3  A    between atoms: CBA_3629  and  CGA_3630 
DOCKED: REMARK    4  A    between atoms: C3B_3635  and  CAB_3638 
DOCKED: REMARK    5  A    between atoms: C3C_3642  and  CAC_3645 
DOCKED: REMARK    6  A    between atoms: C3D_3649  and  CAD_3652 
DOCKED: REMARK    7  A    between atoms: CAD_3652  and  CBD_3653 
DOCKED: REMARK    8  A    between atoms: CBD_3653  and  CGD_3654 
DOCKED: USER                              x       y       z     vdW  Elec       q    Type
DOCKED: USER                           _______ _______ _______ _____ _____    ______ ____
DOCKED: ROOT
DOCKED: ATOM      1  CHA HEM A1501      54.292  81.137  10.285 -0.27 +0.04    +0.038 A 
DOCKED: ATOM      2  CHB HEM A1501      55.194  78.380  14.122 -0.38 +0.02    +0.038 A 
DOCKED: ATOM      3  CHC HEM A1501      55.408  74.475  11.296 -0.40 +0.01    +0.038 A 
DOCKED: ATOM      4  CHD HEM A1501      54.439  77.226   7.461 -0.40 +0.03    +0.038 A 
DOCKED: ATOM      5  C1A HEM A1501      54.493  80.726  11.598 -0.22 +0.07    +0.079 A 
DOCKED: ATOM      6  C2A HEM A1501      54.473  81.571  12.797 -0.31 -0.00    -0.006 A 
DOCKED: ATOM      7  C3A HEM A1501      54.726  80.787  13.835 -0.37 -0.00    -0.007 A 
DOCKED: ATOM      8  C4A HEM A1501      54.896  79.463  13.318 -0.31 +0.05    +0.079 A 
DOCKED: ATOM      9  CMA HEM A1501      54.802  81.183  15.278 -0.47 +0.01    +0.032 C 
DOCKED: ATOM     10  C1B HEM A1501      55.364  77.075  13.698 -0.32 +0.03    +0.079 A 
DOCKED: ATOM     11  C2B HEM A1501      55.698  75.967  14.585 -0.39 -0.00    -0.003 A 
DOCKED: ATOM     12  C3B HEM A1501      55.773  74.874  13.782 -0.40 +0.01    +0.015 A 
DOCKED: ATOM     13  C4B HEM A1501      55.461  75.311  12.425 -0.33 +0.03    +0.083 A 
DOCKED: ATOM     14  CMB HEM A1501      55.909  76.089  16.069 -0.54 +0.01    +0.033 C 
DOCKED: ATOM     15  C1C HEM A1501      55.138  74.821  10.000 -0.37 +0.03    +0.079 A 
DOCKED: ATOM     16  C2C HEM A1501      55.017  73.901   8.902 -0.46 -0.00    -0.003 A 
DOCKED: ATOM     17  C3C HEM A1501      54.727  74.652   7.808 -0.46 +0.01    +0.015 A 
DOCKED: ATOM     18  C4C HEM A1501      54.680  76.057   8.259 -0.36 +0.05    +0.083 A 
DOCKED: ATOM     19  CMC HEM A1501      55.196  72.403   9.037 -0.54 +0.01    +0.033 C 
DOCKED: ATOM     20  C1D HEM A1501      54.364  78.580   7.872 -0.33 +0.06    +0.079 A 
DOCKED: ATOM     21  C2D HEM A1501      54.112  79.689   7.004 -0.37 -0.01    -0.007 A 
DOCKED: ATOM     22  C3D HEM A1501      54.070  80.793   7.794 -0.35 -0.01    -0.006 A 
DOCKED: ATOM     23  C4D HEM A1501      54.292  80.353   9.158 -0.26 +0.08    +0.079 A 
DOCKED: ATOM     24  CMD HEM A1501      53.929  79.641   5.539 -0.46 +0.03    +0.032 C 
DOCKED: ATOM     25  NA  HEM A1501      54.726  79.427  11.966 -0.12 -0.17    -0.246 N 
DOCKED: ATOM     26  NB  HEM A1501      55.242  76.643  12.399 -0.12 -0.11    -0.246 N 
DOCKED: ATOM     27  NC  HEM A1501      54.906  76.087   9.574 -0.10 -0.12    -0.246 N 
DOCKED: ATOM     28  ND  HEM A1501      54.464  79.004   9.168 -0.18 -0.20    -0.246 N 
DOCKED: ATOM     29 FE   HEM A1501      54.824  77.785  10.756 -0.07 +0.00    +0.000 Fe
DOCKED: ENDROOT
DOCKED: BRANCH  22  30
DOCKED: ATOM     30  CAD HEM A1501      53.835  82.166   7.289 -0.44 +0.06    +0.039 C 
DOCKED: BRANCH  30  31
DOCKED: ATOM     31  CBD HEM A1501      52.348  82.451   7.081 -0.56 +0.16    +0.102 C 
DOCKED: BRANCH  31  32
DOCKED: ATOM     32  CGD HEM A1501      52.093  83.701   6.260 -0.63 +0.36    +0.186 C 
DOCKED: ATOM     33  O1D HEM A1501      52.937  84.599   6.475 -1.17 -1.72    -0.647 OA
DOCKED: ATOM     34  O2D HEM A1501      51.119  83.791   5.388 -1.06 -1.32    -0.647 OA
DOCKED: ENDBRANCH  31  32
DOCKED: ENDBRANCH  30  31
DOCKED: ENDBRANCH  22  30
DOCKED: BRANCH   6  35
DOCKED: ATOM     35  CAA HEM A1501      54.213  83.034  12.878 -0.38 +0.04    +0.039 C 
DOCKED: BRANCH  35  36
DOCKED: ATOM     36  CBA HEM A1501      52.979  83.340  13.705 -0.46 +0.10    +0.102 C 
DOCKED: BRANCH  36  37
DOCKED: ATOM     37  CGA HEM A1501      52.162  84.495  13.195 -0.50 +0.25    +0.186 C 
DOCKED: ATOM     38  O1A HEM A1501      52.574  85.115  12.188 -0.58 -1.25    -0.647 OA
DOCKED: ATOM     39  O2A HEM A1501      51.085  84.757  13.767 -0.41 -0.83    -0.647 OA
DOCKED: ENDBRANCH  36  37
DOCKED: ENDBRANCH  35  36
DOCKED: ENDBRANCH   6  35
DOCKED: BRANCH  17  40
DOCKED: ATOM     40  CAC HEM A1501      54.504  74.204   6.429 -0.60 +0.00    +0.001 C 
DOCKED: ATOM     41  CBC HEM A1501      53.693  74.769   5.521 -0.66 +0.00    +0.000 C 
DOCKED: ENDBRANCH  17  40
DOCKED: BRANCH  12  42
DOCKED: ATOM     42  CAB HEM A1501      56.087  73.460  14.088 -0.57 +0.00    +0.001 C 
DOCKED: ATOM     43  CBB HEM A1501      56.976  72.941  14.912 -0.64 +0.00    +0.000 C 
DOCKED: ENDBRANCH  12  42
DOCKED: TORSDOF 8
DOCKED: TER
DOCKED: ENDMDL
________________________________________________________________________________


	BEGINNING GENETIC ALGORITHM DOCKING 83 of 100
Run: 83 Seed: 1490849776 526012317 [ Run 83 of 100 GA/GALS ]
Beginning LAMARCKIAN GENETIC ALGORITHM (LGA), with a maximum of 2500000 energy evaluations.

Final-Value: -23.298


	FINAL GENETIC ALGORITHM DOCKED STATE
	_______________________________________________


Detailed state:  trans 54.327 78.804 10.385 quatxyzw 0.028926 0.015484 -0.015496 0.999341 center 54.495 78.699 10.493 ntor 8 -3.1712 -21.4509 160.3931 169.3107 3.6256 -20.1263 24.7944 7.9117
State:	 54.327  78.804  10.385   0.797  0.427 -0.427  4.159     -3.17  -21.45  160.39  169.31    3.63  -20.13   24.79    7.91

DOCKED: MODEL       83
DOCKED: USER    Run = 83
DOCKED: USER    DPF = C:/Users/georg/Desktop/Dock/executables_autodock_tools/receptor.dpf
DOCKED: USER  
DOCKED: USER    Estimated Free Energy of Binding    =  -20.30 kcal/mol  [=(1)+(2)+(3)-(4)]
DOCKED: USER    Estimated Inhibition Constant, Ki   =    1.31 fM (femtomolar)  [Temperature = 298.15 K]
DOCKED: USER    
DOCKED: USER    (1) Final Intermolecular Energy     =  -22.69 kcal/mol
DOCKED: USER        vdW + Hbond + desolv Energy     =  -18.41 kcal/mol
DOCKED: USER        Electrostatic Energy            =   -4.28 kcal/mol
DOCKED: USER    (2) Final Total Internal Energy     =   -0.61 kcal/mol
DOCKED: USER    (3) Torsional Free Energy           =   +2.39 kcal/mol
DOCKED: USER    (4) Unbound System's Energy  [=(2)] =   -0.61 kcal/mol
DOCKED: USER    
DOCKED: USER    
DOCKED: USER    NEWDPF move ligand.pdbqt
DOCKED: USER    NEWDPF about 54.495000 78.699000 10.493000
DOCKED: USER    NEWDPF tran0 54.327267 78.803760 10.384544
DOCKED: USER    NEWDPF quaternion0 0.028926 0.015484 -0.015496 0.999341
DOCKED: USER    NEWDPF axisangle0 0.797199 0.426722 -0.427062 4.158858
DOCKED: USER    NEWDPF quat0 0.797199 0.426722 -0.427062 4.158858
DOCKED: USER    NEWDPF dihe0 -3.17 -21.45 160.39 169.31 3.63 -20.13 24.79 7.91 
DOCKED: USER  keepresnum = 1 
DOCKED: USER  
DOCKED: REMARK  8 active torsions:
DOCKED: REMARK  status: ('A' for Active; 'I' for Inactive)
DOCKED: REMARK    1  A    between atoms: C2A_3624  and  CAA_3628 
DOCKED: REMARK    2  A    between atoms: CAA_3628  and  CBA_3629 
DOCKED: REMARK    3  A    between atoms: CBA_3629  and  CGA_3630 
DOCKED: REMARK    4  A    between atoms: C3B_3635  and  CAB_3638 
DOCKED: REMARK    5  A    between atoms: C3C_3642  and  CAC_3645 
DOCKED: REMARK    6  A    between atoms: C3D_3649  and  CAD_3652 
DOCKED: REMARK    7  A    between atoms: CAD_3652  and  CBD_3653 
DOCKED: REMARK    8  A    between atoms: CBD_3653  and  CGD_3654 
DOCKED: USER                              x       y       z     vdW  Elec       q    Type
DOCKED: USER                           _______ _______ _______ _____ _____    ______ ____
DOCKED: ROOT
DOCKED: ATOM      1  CHA HEM A1501      54.203  81.105   9.835 -0.29 +0.04    +0.038 A 
DOCKED: ATOM      2  CHB HEM A1501      55.017  78.696  13.919 -0.38 +0.02    +0.038 A 
DOCKED: ATOM      3  CHC HEM A1501      55.464  74.585  11.434 -0.40 +0.01    +0.038 A 
DOCKED: ATOM      4  CHD HEM A1501      54.584  76.986   7.350 -0.39 +0.03    +0.038 A 
DOCKED: ATOM      5  C1A HEM A1501      54.359  80.808  11.185 -0.22 +0.07    +0.079 A 
DOCKED: ATOM      6  C2A HEM A1501      54.263  81.745  12.309 -0.32 -0.01    -0.006 A 
DOCKED: ATOM      7  C3A HEM A1501      54.494  81.056  13.417 -0.36 -0.00    -0.007 A 
DOCKED: ATOM      8  C4A HEM A1501      54.723  79.701  13.018 -0.29 +0.05    +0.079 A 
DOCKED: ATOM      9  CMA HEM A1501      54.495  81.570  14.825 -0.47 +0.02    +0.032 C 
DOCKED: ATOM     10  C1B HEM A1501      55.242  77.367  13.611 -0.32 +0.03    +0.079 A 
DOCKED: ATOM     11  C2B HEM A1501      55.569  76.346  14.599 -0.40 -0.00    -0.003 A 
DOCKED: ATOM     12  C3B HEM A1501      55.709  75.195  13.892 -0.38 +0.01    +0.015 A 
DOCKED: ATOM     13  C4B HEM A1501      55.444  75.511  12.491 -0.32 +0.03    +0.083 A 
DOCKED: ATOM     14  CMB HEM A1501      55.712  76.594  16.076 -0.53 +0.01    +0.033 C 
DOCKED: ATOM     15  C1C HEM A1501      55.241  74.816  10.104 -0.37 +0.03    +0.079 A 
DOCKED: ATOM     16  C2C HEM A1501      55.193  73.808   9.081 -0.47 -0.00    -0.003 A 
DOCKED: ATOM     17  C3C HEM A1501      54.929  74.459   7.919 -0.45 +0.01    +0.015 A 
DOCKED: ATOM     18  C4C HEM A1501      54.824  75.893   8.251 -0.36 +0.05    +0.083 A 
DOCKED: ATOM     19  CMC HEM A1501      55.409  72.332   9.346 -0.54 +0.01    +0.033 C 
DOCKED: ATOM     20  C1D HEM A1501      54.453  78.365   7.646 -0.33 +0.06    +0.079 A 
DOCKED: ATOM     21  C2D HEM A1501      54.207  79.392   6.680 -0.38 -0.01    -0.007 A 
DOCKED: ATOM     22  C3D HEM A1501      54.100  80.554   7.374 -0.35 -0.01    -0.006 A 
DOCKED: ATOM     23  C4D HEM A1501      54.275  80.233   8.777 -0.27 +0.08    +0.079 A 
DOCKED: ATOM     24  CMD HEM A1501      54.089  79.220   5.218 -0.49 +0.03    +0.032 C 
DOCKED: ATOM     25  NA  HEM A1501      54.613  79.551  11.668 -0.10 -0.18    -0.246 N 
DOCKED: ATOM     26  NB  HEM A1501      55.189  76.829  12.347 -0.09 -0.11    -0.246 N 
DOCKED: ATOM     27  NC  HEM A1501      54.992  76.036   9.567 -0.14 -0.12    -0.246 N 
DOCKED: ATOM     28  ND  HEM A1501      54.484  78.895   8.905 -0.19 -0.20    -0.246 N 
DOCKED: ATOM     29 FE   HEM A1501      54.810  77.821  10.601 -0.07 +0.00    +0.000 Fe
DOCKED: ENDROOT
DOCKED: BRANCH  22  30
DOCKED: ATOM     30  CAD HEM A1501      53.847  81.874   6.749 -0.45 +0.05    +0.039 C 
DOCKED: BRANCH  30  31
DOCKED: ATOM     31  CBD HEM A1501      52.441  82.390   7.053 -0.56 +0.16    +0.102 C 
DOCKED: BRANCH  31  32
DOCKED: ATOM     32  CGD HEM A1501      52.108  83.673   6.314 -0.62 +0.36    +0.186 C 
DOCKED: ATOM     33  O1D HEM A1501      52.929  84.588   6.545 -1.17 -1.73    -0.647 OA
DOCKED: ATOM     34  O2D HEM A1501      51.096  83.774   5.489 -1.04 -1.34    -0.647 OA
DOCKED: ENDBRANCH  31  32
DOCKED: ENDBRANCH  30  31
DOCKED: ENDBRANCH  22  30
DOCKED: BRANCH   6  35
DOCKED: ATOM     35  CAA HEM A1501      53.958  83.201  12.260 -0.40 +0.05    +0.039 C 
DOCKED: BRANCH  35  36
DOCKED: ATOM     36  CBA HEM A1501      52.554  83.498  12.749 -0.51 +0.12    +0.102 C 
DOCKED: BRANCH  36  37
DOCKED: ATOM     37  CGA HEM A1501      52.360  84.897  13.265 -0.45 +0.28    +0.186 C 
DOCKED: ATOM     38  O1A HEM A1501      53.372  85.619  13.421 -0.39 -1.23    -0.647 OA
DOCKED: ATOM     39  O2A HEM A1501      51.196  85.296  13.473 -0.72 -0.95    -0.647 OA
DOCKED: ENDBRANCH  36  37
DOCKED: ENDBRANCH  35  36
DOCKED: ENDBRANCH   6  35
DOCKED: BRANCH  17  40
DOCKED: ATOM     40  CAC HEM A1501      54.780  73.894   6.572 -0.59 +0.00    +0.001 C 
DOCKED: ATOM     41  CBC HEM A1501      53.672  73.904   5.815 -0.66 +0.00    +0.000 C 
DOCKED: ENDBRANCH  17  40
DOCKED: BRANCH  12  42
DOCKED: ATOM     42  CAB HEM A1501      56.050  73.821  14.326 -0.55 +0.00    +0.001 C 
DOCKED: ATOM     43  CBB HEM A1501      56.985  73.392  15.151 -0.62 +0.00    +0.000 C 
DOCKED: ENDBRANCH  12  42
DOCKED: TORSDOF 8
DOCKED: TER
DOCKED: ENDMDL
________________________________________________________________________________


	BEGINNING GENETIC ALGORITHM DOCKING 84 of 100
Run: 84 Seed: 1982166557 985816495 [ Run 84 of 100 GA/GALS ]
Beginning LAMARCKIAN GENETIC ALGORITHM (LGA), with a maximum of 2500000 energy evaluations.

Final-Value: -23.279


	FINAL GENETIC ALGORITHM DOCKED STATE
	_______________________________________________


Detailed state:  trans 54.316 78.844 10.654 quatxyzw -0.013427 0.007188 -0.009842 0.999836 center 54.495 78.699 10.493 ntor 8 11.1747 -26.4160 40.7856 -169.5037 -5.5053 28.5306 -27.1728 12.9920
State:	 54.316  78.844  10.654  -0.740  0.396 -0.543  2.078     11.17  -26.42   40.79 -169.50   -5.51   28.53  -27.17   12.99

DOCKED: MODEL       84
DOCKED: USER    Run = 84
DOCKED: USER    DPF = C:/Users/georg/Desktop/Dock/executables_autodock_tools/receptor.dpf
DOCKED: USER  
DOCKED: USER    Estimated Free Energy of Binding    =  -20.44 kcal/mol  [=(1)+(2)+(3)-(4)]
DOCKED: USER    Estimated Inhibition Constant, Ki   =    1.04 fM (femtomolar)  [Temperature = 298.15 K]
DOCKED: USER    
DOCKED: USER    (1) Final Intermolecular Energy     =  -22.83 kcal/mol
DOCKED: USER        vdW + Hbond + desolv Energy     =  -18.46 kcal/mol
DOCKED: USER        Electrostatic Energy            =   -4.37 kcal/mol
DOCKED: USER    (2) Final Total Internal Energy     =   -0.45 kcal/mol
DOCKED: USER    (3) Torsional Free Energy           =   +2.39 kcal/mol
DOCKED: USER    (4) Unbound System's Energy  [=(2)] =   -0.45 kcal/mol
DOCKED: USER    
DOCKED: USER    
DOCKED: USER    NEWDPF move ligand.pdbqt
DOCKED: USER    NEWDPF about 54.495000 78.699000 10.493000
DOCKED: USER    NEWDPF tran0 54.315861 78.843935 10.653997
DOCKED: USER    NEWDPF quaternion0 -0.013427 0.007188 -0.009842 0.999836
DOCKED: USER    NEWDPF axisangle0 -0.740464 0.396411 -0.542745 2.078045
DOCKED: USER    NEWDPF quat0 -0.740464 0.396411 -0.542745 2.078045
DOCKED: USER    NEWDPF dihe0 11.17 -26.42 40.79 -169.50 -5.51 28.53 -27.17 12.99 
DOCKED: USER  keepresnum = 1 
DOCKED: USER  
DOCKED: REMARK  8 active torsions:
DOCKED: REMARK  status: ('A' for Active; 'I' for Inactive)
DOCKED: REMARK    1  A    between atoms: C2A_3624  and  CAA_3628 
DOCKED: REMARK    2  A    between atoms: CAA_3628  and  CBA_3629 
DOCKED: REMARK    3  A    between atoms: CBA_3629  and  CGA_3630 
DOCKED: REMARK    4  A    between atoms: C3B_3635  and  CAB_3638 
DOCKED: REMARK    5  A    between atoms: C3C_3642  and  CAC_3645 
DOCKED: REMARK    6  A    between atoms: C3D_3649  and  CAD_3652 
DOCKED: REMARK    7  A    between atoms: CAD_3652  and  CBD_3653 
DOCKED: REMARK    8  A    between atoms: CBD_3653  and  CGD_3654 
DOCKED: USER                              x       y       z     vdW  Elec       q    Type
DOCKED: USER                           _______ _______ _______ _____ _____    ______ ____
DOCKED: ROOT
DOCKED: ATOM      1  CHA HEM A1501      54.208  81.184  10.303 -0.28 +0.04    +0.038 A 
DOCKED: ATOM      2  CHB HEM A1501      55.065  78.431  14.154 -0.39 +0.02    +0.038 A 
DOCKED: ATOM      3  CHC HEM A1501      55.423  74.541  11.323 -0.40 +0.01    +0.038 A 
DOCKED: ATOM      4  CHD HEM A1501      54.500  77.287   7.473 -0.39 +0.03    +0.038 A 
DOCKED: ATOM      5  C1A HEM A1501      54.384  80.773  11.620 -0.23 +0.07    +0.079 A 
DOCKED: ATOM      6  C2A HEM A1501      54.317  81.613  12.821 -0.34 -0.00    -0.006 A 
DOCKED: ATOM      7  C3A HEM A1501      54.559  80.830  13.863 -0.39 -0.00    -0.007 A 
DOCKED: ATOM      8  C4A HEM A1501      54.767  79.511  13.347 -0.32 +0.05    +0.079 A 
DOCKED: ATOM      9  CMA HEM A1501      54.590  81.222  15.308 -0.46 +0.01    +0.032 C 
DOCKED: ATOM     10  C1B HEM A1501      55.269  77.131  13.731 -0.32 +0.03    +0.079 A 
DOCKED: ATOM     11  C2B HEM A1501      55.602  76.027  14.623 -0.39 -0.00    -0.003 A 
DOCKED: ATOM     12  C3B HEM A1501      55.717  74.938  13.819 -0.39 +0.01    +0.015 A 
DOCKED: ATOM     13  C4B HEM A1501      55.431  75.374  12.455 -0.33 +0.03    +0.083 A 
DOCKED: ATOM     14  CMB HEM A1501      55.773  76.148  16.112 -0.54 +0.01    +0.033 C 
DOCKED: ATOM     15  C1C HEM A1501      55.180  74.886  10.021 -0.37 +0.03    +0.079 A 
DOCKED: ATOM     16  C2C HEM A1501      55.104  73.968   8.918 -0.46 -0.00    -0.003 A 
DOCKED: ATOM     17  C3C HEM A1501      54.827  74.718   7.820 -0.46 +0.01    +0.015 A 
DOCKED: ATOM     18  C4C HEM A1501      54.743  76.119   8.273 -0.36 +0.05    +0.083 A 
DOCKED: ATOM     19  CMC HEM A1501      55.307  72.473   9.053 -0.53 +0.01    +0.033 C 
DOCKED: ATOM     20  C1D HEM A1501      54.389  78.637   7.886 -0.32 +0.06    +0.079 A 
DOCKED: ATOM     21  C2D HEM A1501      54.139  79.745   7.015 -0.36 -0.01    -0.007 A 
DOCKED: ATOM     22  C3D HEM A1501      54.056  80.845   7.807 -0.35 -0.01    -0.006 A 
DOCKED: ATOM     23  C4D HEM A1501      54.252  80.404   9.175 -0.26 +0.08    +0.079 A 
DOCKED: ATOM     24  CMD HEM A1501      53.994  79.698   5.546 -0.47 +0.03    +0.032 C 
DOCKED: ATOM     25  NA  HEM A1501      54.632  79.477  11.990 -0.11 -0.17    -0.246 N 
DOCKED: ATOM     26  NB  HEM A1501      55.189  76.702  12.427 -0.11 -0.11    -0.246 N 
DOCKED: ATOM     27  NC  HEM A1501      54.935  76.149   9.594 -0.08 -0.12    -0.246 N 
DOCKED: ATOM     28  ND  HEM A1501      54.448  79.059   9.185 -0.18 -0.20    -0.246 N 
DOCKED: ATOM     29 FE   HEM A1501      54.791  77.842  10.778 -0.07 +0.00    +0.000 Fe
DOCKED: ENDROOT
DOCKED: BRANCH  22  30
DOCKED: ATOM     30  CAD HEM A1501      53.808  82.215   7.300 -0.44 +0.06    +0.039 C 
DOCKED: BRANCH  30  31
DOCKED: ATOM     31  CBD HEM A1501      52.506  82.303   6.504 -0.58 +0.15    +0.102 C 
DOCKED: BRANCH  31  32
DOCKED: ATOM     32  CGD HEM A1501      52.186  83.713   6.045 -0.65 +0.35    +0.186 C 
DOCKED: ATOM     33  O1D HEM A1501      51.081  83.791   5.465 -1.05 -1.34    -0.647 OA
DOCKED: ATOM     34  O2D HEM A1501      52.972  84.733   6.287 -1.07 -1.75    -0.647 OA
DOCKED: ENDBRANCH  31  32
DOCKED: ENDBRANCH  30  31
DOCKED: ENDBRANCH  22  30
DOCKED: BRANCH   6  35
DOCKED: ATOM     35  CAA HEM A1501      54.029  83.071  12.900 -0.41 +0.04    +0.039 C 
DOCKED: BRANCH  35  36
DOCKED: ATOM     36  CBA HEM A1501      52.686  83.342  13.552 -0.49 +0.10    +0.102 C 
DOCKED: BRANCH  36  37
DOCKED: ATOM     37  CGA HEM A1501      52.065  84.656  13.166 -0.49 +0.26    +0.186 C 
DOCKED: ATOM     38  O1A HEM A1501      52.563  85.291  12.208 -0.53 -1.32    -0.647 OA
DOCKED: ATOM     39  O2A HEM A1501      51.051  85.037  13.786 -0.60 -0.87    -0.647 OA
DOCKED: ENDBRANCH  36  37
DOCKED: ENDBRANCH  35  36
DOCKED: ENDBRANCH   6  35
DOCKED: BRANCH  17  40
DOCKED: ATOM     40  CAC HEM A1501      54.648  74.270   6.433 -0.60 +0.00    +0.001 C 
DOCKED: ATOM     41  CBC HEM A1501      53.635  74.585   5.612 -0.66 +0.00    +0.000 C 
DOCKED: ENDBRANCH  17  40
DOCKED: BRANCH  12  42
DOCKED: ATOM     42  CAB HEM A1501      56.050  73.529  14.129 -0.57 +0.00    +0.001 C 
DOCKED: ATOM     43  CBB HEM A1501      57.045  73.020  14.828 -0.64 +0.00    +0.000 C 
DOCKED: ENDBRANCH  12  42
DOCKED: TORSDOF 8
DOCKED: TER
DOCKED: ENDMDL
________________________________________________________________________________


	BEGINNING GENETIC ALGORITHM DOCKING 85 of 100
Run: 85 Seed: 1600439499 636428184 [ Run 85 of 100 GA/GALS ]
Beginning LAMARCKIAN GENETIC ALGORITHM (LGA), with a maximum of 2500000 energy evaluations.

Final-Value: -23.001


	FINAL GENETIC ALGORITHM DOCKED STATE
	_______________________________________________


Detailed state:  trans 54.963 78.587 10.207 quatxyzw 0.154478 -0.975247 0.157970 -0.008712 center 54.495 78.699 10.493 ntor 8 116.7801 76.0669 -122.6790 -40.2431 -2.5721 9.5183 179.9395 -179.8385
State:	 54.963  78.587  10.207   0.154 -0.975  0.158 -179.002    116.78   76.07 -122.68  -40.24   -2.57    9.52  179.94 -179.84

DOCKED: MODEL       85
DOCKED: USER    Run = 85
DOCKED: USER    DPF = C:/Users/georg/Desktop/Dock/executables_autodock_tools/receptor.dpf
DOCKED: USER  
DOCKED: USER    Estimated Free Energy of Binding    =  -20.07 kcal/mol  [=(1)+(2)+(3)-(4)]
DOCKED: USER    Estimated Inhibition Constant, Ki   =    1.95 fM (femtomolar)  [Temperature = 298.15 K]
DOCKED: USER    
DOCKED: USER    (1) Final Intermolecular Energy     =  -22.45 kcal/mol
DOCKED: USER        vdW + Hbond + desolv Energy     =  -17.84 kcal/mol
DOCKED: USER        Electrostatic Energy            =   -4.61 kcal/mol
DOCKED: USER    (2) Final Total Internal Energy     =   -0.55 kcal/mol
DOCKED: USER    (3) Torsional Free Energy           =   +2.39 kcal/mol
DOCKED: USER    (4) Unbound System's Energy  [=(2)] =   -0.55 kcal/mol
DOCKED: USER    
DOCKED: USER    
DOCKED: USER    NEWDPF move ligand.pdbqt
DOCKED: USER    NEWDPF about 54.495000 78.699000 10.493000
DOCKED: USER    NEWDPF tran0 54.962535 78.587455 10.207491
DOCKED: USER    NEWDPF quaternion0 0.154478 -0.975247 0.157970 -0.008712
DOCKED: USER    NEWDPF axisangle0 0.154483 -0.975284 0.157976 -179.001666
DOCKED: USER    NEWDPF quat0 0.154483 -0.975284 0.157976 -179.001666
DOCKED: USER    NEWDPF dihe0 116.78 76.07 -122.68 -40.24 -2.57 9.52 179.94 -179.84 
DOCKED: USER  keepresnum = 1 
DOCKED: USER  
DOCKED: REMARK  8 active torsions:
DOCKED: REMARK  status: ('A' for Active; 'I' for Inactive)
DOCKED: REMARK    1  A    between atoms: C2A_3624  and  CAA_3628 
DOCKED: REMARK    2  A    between atoms: CAA_3628  and  CBA_3629 
DOCKED: REMARK    3  A    between atoms: CBA_3629  and  CGA_3630 
DOCKED: REMARK    4  A    between atoms: C3B_3635  and  CAB_3638 
DOCKED: REMARK    5  A    between atoms: C3C_3642  and  CAC_3645 
DOCKED: REMARK    6  A    between atoms: C3D_3649  and  CAD_3652 
DOCKED: REMARK    7  A    between atoms: CAD_3652  and  CBD_3653 
DOCKED: REMARK    8  A    between atoms: CBD_3653  and  CGD_3654 
DOCKED: USER                              x       y       z     vdW  Elec       q    Type
DOCKED: USER                           _______ _______ _______ _____ _____    ______ ____
DOCKED: ROOT
DOCKED: ATOM      1  CHA HEM A1501      54.304  80.840   9.882 -0.27 +0.04    +0.038 A 
DOCKED: ATOM      2  CHB HEM A1501      54.421  76.962   7.038 -0.42 +0.03    +0.038 A 
DOCKED: ATOM      3  CHC HEM A1501      55.312  74.155  10.860 -0.41 +0.01    +0.038 A 
DOCKED: ATOM      4  CHD HEM A1501      55.261  78.047  13.700 -0.35 +0.02    +0.038 A 
DOCKED: ATOM      5  C1A HEM A1501      54.284  80.029   8.752 -0.27 +0.08    +0.079 A 
DOCKED: ATOM      6  C2A HEM A1501      54.087  80.461   7.364 -0.35 -0.01    -0.006 A 
DOCKED: ATOM      7  C3A HEM A1501      54.121  79.374   6.606 -0.38 -0.01    -0.007 A 
DOCKED: ATOM      8  C4A HEM A1501      54.346  78.267   7.484 -0.34 +0.06    +0.079 A 
DOCKED: ATOM      9  CMA HEM A1501      53.979  79.299   5.116 -0.47 +0.03    +0.032 C 
DOCKED: ATOM     10  C1B HEM A1501      54.644  75.845   7.822 -0.39 +0.05    +0.079 A 
DOCKED: ATOM     11  C2B HEM A1501      54.695  74.484   7.304 -0.49 -0.00    -0.003 A 
DOCKED: ATOM     12  C3B HEM A1501      54.930  73.697   8.386 -0.45 +0.01    +0.015 A 
DOCKED: ATOM     13  C4B HEM A1501      55.046  74.577   9.545 -0.38 +0.03    +0.083 A 
DOCKED: ATOM     14  CMB HEM A1501      54.509  74.106   5.860 -0.60 +0.02    +0.033 C 
DOCKED: ATOM     15  C1C HEM A1501      55.419  74.922  11.988 -0.35 +0.03    +0.079 A 
DOCKED: ATOM     16  C2C HEM A1501      55.777  74.437  13.293 -0.42 -0.00    -0.003 A 
DOCKED: ATOM     17  C3C HEM A1501      55.785  75.521  14.111 -0.38 +0.01    +0.015 A 
DOCKED: ATOM     18  C4C HEM A1501      55.416  76.683  13.280 -0.30 +0.04    +0.083 A 
DOCKED: ATOM     19  CMC HEM A1501      56.069  72.982  13.597 -0.50 +0.01    +0.033 C 
DOCKED: ATOM     20  C1D HEM A1501      54.933  79.183  12.919 -0.27 +0.05    +0.079 A 
DOCKED: ATOM     21  C2D HEM A1501      54.804  80.517  13.423 -0.34 -0.00    -0.007 A 
DOCKED: ATOM     22  C3D HEM A1501      54.533  81.306  12.352 -0.29 -0.00    -0.006 A 
DOCKED: ATOM     23  C4D HEM A1501      54.504  80.449  11.183 -0.20 +0.07    +0.079 A 
DOCKED: ATOM     24  CMD HEM A1501      54.941  80.947  14.829 -0.44 +0.02    +0.032 C 
DOCKED: ATOM     25  NA  HEM A1501      54.472  78.673   8.780 -0.20 -0.19    -0.246 N 
DOCKED: ATOM     26  NB  HEM A1501      54.846  75.862   9.182 -0.22 -0.12    -0.246 N 
DOCKED: ATOM     27  NC  HEM A1501      55.238  76.265  12.025 -0.10 -0.10    -0.246 N 
DOCKED: ATOM     28  ND  HEM A1501      54.753  79.168  11.564 -0.06 -0.17    -0.246 N 
DOCKED: ATOM     29 FE   HEM A1501      54.838  77.497  10.409 -0.07 +0.00    +0.000 Fe
DOCKED: ENDROOT
DOCKED: BRANCH  22  30
DOCKED: ATOM     30  CAD HEM A1501      54.320  82.771  12.434 -0.36 +0.04    +0.039 C 
DOCKED: BRANCH  30  31
DOCKED: ATOM     31  CBD HEM A1501      52.837  83.128  12.522 -0.48 +0.12    +0.102 C 
DOCKED: BRANCH  31  32
DOCKED: ATOM     32  CGD HEM A1501      52.592  84.622  12.621 -0.40 +0.29    +0.186 C 
DOCKED: ATOM     33  O1D HEM A1501      53.562  85.297  12.210 -0.58 -1.52    -0.647 OA
DOCKED: ATOM     34  O2D HEM A1501      51.461  85.130  13.045 -0.45 -0.96    -0.647 OA
DOCKED: ENDBRANCH  31  32
DOCKED: ENDBRANCH  30  31
DOCKED: ENDBRANCH  22  30
DOCKED: BRANCH   6  35
DOCKED: ATOM     35  CAA HEM A1501      53.890  81.846   6.858 -0.44 +0.05    +0.039 C 
DOCKED: BRANCH  35  36
DOCKED: ATOM     36  CBA HEM A1501      52.452  82.301   7.014 -0.56 +0.16    +0.102 C 
DOCKED: BRANCH  36  37
DOCKED: ATOM     37  CGA HEM A1501      52.156  83.643   6.403 -0.61 +0.36    +0.186 C 
DOCKED: ATOM     38  O1A HEM A1501      51.061  83.800   5.815 -0.89 -1.38    -0.647 OA
DOCKED: ATOM     39  O2A HEM A1501      52.993  84.557   6.547 -1.14 -1.73    -0.647 OA
DOCKED: ENDBRANCH  36  37
DOCKED: ENDBRANCH  35  36
DOCKED: ENDBRANCH   6  35
DOCKED: BRANCH  17  40
DOCKED: ATOM     40  CAC HEM A1501      56.086  75.575  15.547 -0.52 +0.00    +0.001 C 
DOCKED: ATOM     41  CBC HEM A1501      55.297  76.065  16.515 -0.59 +0.00    +0.000 C 
DOCKED: ENDBRANCH  17  40
DOCKED: BRANCH  12  42
DOCKED: ATOM     42  CAB HEM A1501      55.074  72.228   8.511 -0.56 +0.00    +0.001 C 
DOCKED: ATOM     43  CBB HEM A1501      55.849  71.387   7.856 -0.54 +0.00    +0.000 C 
DOCKED: ENDBRANCH  12  42
DOCKED: TORSDOF 8
DOCKED: TER
DOCKED: ENDMDL
________________________________________________________________________________


	BEGINNING GENETIC ALGORITHM DOCKING 86 of 100
Run: 86 Seed: 1412767698 537440381 [ Run 86 of 100 GA/GALS ]
Beginning LAMARCKIAN GENETIC ALGORITHM (LGA), with a maximum of 2500000 energy evaluations.

Final-Value: -22.977


	FINAL GENETIC ALGORITHM DOCKED STATE
	_______________________________________________


Detailed state:  trans 54.864 78.818 10.230 quatxyzw -0.186811 0.958698 -0.213626 -0.019056 center 54.495 78.699 10.493 ntor 8 180.0000 22.3674 -168.5145 112.7062 -27.3333 4.9504 -147.3684 -154.4802
State:	 54.864  78.818  10.230  -0.187  0.959 -0.214 -177.816    180.00   22.37 -168.51  112.71  -27.33    4.95 -147.37 -154.48

DOCKED: MODEL       86
DOCKED: USER    Run = 86
DOCKED: USER    DPF = C:/Users/georg/Desktop/Dock/executables_autodock_tools/receptor.dpf
DOCKED: USER  
DOCKED: USER    Estimated Free Energy of Binding    =  -20.06 kcal/mol  [=(1)+(2)+(3)-(4)]
DOCKED: USER    Estimated Inhibition Constant, Ki   =    1.96 fM (femtomolar)  [Temperature = 298.15 K]
DOCKED: USER    
DOCKED: USER    (1) Final Intermolecular Energy     =  -22.45 kcal/mol
DOCKED: USER        vdW + Hbond + desolv Energy     =  -18.13 kcal/mol
DOCKED: USER        Electrostatic Energy            =   -4.32 kcal/mol
DOCKED: USER    (2) Final Total Internal Energy     =   -0.53 kcal/mol
DOCKED: USER    (3) Torsional Free Energy           =   +2.39 kcal/mol
DOCKED: USER    (4) Unbound System's Energy  [=(2)] =   -0.53 kcal/mol
DOCKED: USER    
DOCKED: USER    
DOCKED: USER    NEWDPF move ligand.pdbqt
DOCKED: USER    NEWDPF about 54.495000 78.699000 10.493000
DOCKED: USER    NEWDPF tran0 54.864381 78.817660 10.230145
DOCKED: USER    NEWDPF quaternion0 -0.186811 0.958698 -0.213626 -0.019056
DOCKED: USER    NEWDPF axisangle0 -0.186845 0.958872 -0.213665 -177.816160
DOCKED: USER    NEWDPF quat0 -0.186845 0.958872 -0.213665 -177.816160
DOCKED: USER    NEWDPF dihe0 180.00 22.37 -168.51 112.71 -27.33 4.95 -147.37 -154.48 
DOCKED: USER  keepresnum = 1 
DOCKED: USER  
DOCKED: REMARK  8 active torsions:
DOCKED: REMARK  status: ('A' for Active; 'I' for Inactive)
DOCKED: REMARK    1  A    between atoms: C2A_3624  and  CAA_3628 
DOCKED: REMARK    2  A    between atoms: CAA_3628  and  CBA_3629 
DOCKED: REMARK    3  A    between atoms: CBA_3629  and  CGA_3630 
DOCKED: REMARK    4  A    between atoms: C3B_3635  and  CAB_3638 
DOCKED: REMARK    5  A    between atoms: C3C_3642  and  CAC_3645 
DOCKED: REMARK    6  A    between atoms: C3D_3649  and  CAD_3652 
DOCKED: REMARK    7  A    between atoms: CAD_3652  and  CBD_3653 
DOCKED: REMARK    8  A    between atoms: CBD_3653  and  CGD_3654 
DOCKED: USER                              x       y       z     vdW  Elec       q    Type
DOCKED: USER                           _______ _______ _______ _____ _____    ______ ____
DOCKED: ROOT
DOCKED: ATOM      1  CHA HEM A1501      54.062  80.964   9.630 -0.30 +0.04    +0.038 A 
DOCKED: ATOM      2  CHB HEM A1501      54.652  76.839   7.227 -0.40 +0.02    +0.038 A 
DOCKED: ATOM      3  CHC HEM A1501      55.501  74.518  11.371 -0.40 +0.01    +0.038 A 
DOCKED: ATOM      4  CHD HEM A1501      54.975  78.662  13.771 -0.37 +0.02    +0.038 A 
DOCKED: ATOM      5  C1A HEM A1501      54.176  80.044   8.593 -0.29 +0.08    +0.079 A 
DOCKED: ATOM      6  C2A HEM A1501      54.038  80.314   7.158 -0.36 -0.01    -0.006 A 
DOCKED: ATOM      7  C3A HEM A1501      54.202  79.163   6.523 -0.38 -0.01    -0.007 A 
DOCKED: ATOM      8  C4A HEM A1501      54.452  78.172   7.526 -0.34 +0.06    +0.079 A 
DOCKED: ATOM      9  CMA HEM A1501      54.162  78.924   5.045 -0.49 +0.02    +0.032 C 
DOCKED: ATOM     10  C1B HEM A1501      54.906  75.830   8.137 -0.37 +0.04    +0.079 A 
DOCKED: ATOM     11  C2B HEM A1501      55.092  74.431   7.771 -0.47 -0.00    -0.003 A 
DOCKED: ATOM     12  C3B HEM A1501      55.315  73.780   8.943 -0.45 +0.01    +0.015 A 
DOCKED: ATOM     13  C4B HEM A1501      55.290  74.781  10.006 -0.37 +0.03    +0.083 A 
DOCKED: ATOM     14  CMB HEM A1501      55.028  73.894   6.367 -0.57 +0.02    +0.033 C 
DOCKED: ATOM     15  C1C HEM A1501      55.476  75.402  12.415 -0.33 +0.03    +0.079 A 
DOCKED: ATOM     16  C2C HEM A1501      55.784  75.083  13.782 -0.41 -0.00    -0.003 A 
DOCKED: ATOM     17  C3C HEM A1501      55.659  76.242  14.479 -0.39 +0.01    +0.015 A 
DOCKED: ATOM     18  C4C HEM A1501      55.259  77.279  13.509 -0.31 +0.04    +0.083 A 
DOCKED: ATOM     19  CMC HEM A1501      56.164  73.695  14.256 -0.54 +0.01    +0.033 C 
DOCKED: ATOM     20  C1D HEM A1501      54.615  79.682  12.857 -0.27 +0.05    +0.079 A 
DOCKED: ATOM     21  C2D HEM A1501      54.354  81.045  13.207 -0.36 -0.00    -0.007 A 
DOCKED: ATOM     22  C3D HEM A1501      54.096  81.698  12.045 -0.34 -0.01    -0.006 A 
DOCKED: ATOM     23  C4D HEM A1501      54.206  80.726  10.974 -0.18 +0.07    +0.079 A 
DOCKED: ATOM     24  CMD HEM A1501      54.368  81.627  14.565 -0.45 +0.02    +0.032 C 
DOCKED: ATOM     25  NA  HEM A1501      54.462  78.717   8.776 -0.20 -0.20    -0.246 N 
DOCKED: ATOM     26  NB  HEM A1501      55.018  76.001   9.496 -0.17 -0.12    -0.246 N 
DOCKED: ATOM     27  NC  HEM A1501      55.193  76.723  12.298 -0.08 -0.11    -0.246 N 
DOCKED: ATOM     28  ND  HEM A1501      54.525  79.515  11.503 -0.07 -0.19    -0.246 N 
DOCKED: ATOM     29 FE   HEM A1501      54.809  77.747  10.539 -0.07 +0.00    +0.000 Fe
DOCKED: ENDROOT
DOCKED: BRANCH  22  30
DOCKED: ATOM     30  CAD HEM A1501      53.769  83.141  11.958 -0.34 +0.05    +0.039 C 
DOCKED: BRANCH  30  31
DOCKED: ATOM     31  CBD HEM A1501      52.469  83.477  12.688 -0.47 +0.12    +0.102 C 
DOCKED: BRANCH  31  32
DOCKED: ATOM     32  CGD HEM A1501      52.406  84.921  13.149 -0.43 +0.28    +0.186 C 
DOCKED: ATOM     33  O1D HEM A1501      53.539  85.422  13.318 -0.51 -1.16    -0.647 OA
DOCKED: ATOM     34  O2D HEM A1501      51.277  85.568  13.300 -0.64 -1.08    -0.647 OA
DOCKED: ENDBRANCH  31  32
DOCKED: ENDBRANCH  30  31
DOCKED: ENDBRANCH  22  30
DOCKED: BRANCH   6  35
DOCKED: ATOM     35  CAA HEM A1501      53.771  81.620   6.496 -0.47 +0.05    +0.039 C 
DOCKED: BRANCH  35  36
DOCKED: ATOM     36  CBA HEM A1501      52.505  82.267   7.023 -0.55 +0.16    +0.102 C 
DOCKED: BRANCH  36  37
DOCKED: ATOM     37  CGA HEM A1501      52.166  83.582   6.377 -0.62 +0.35    +0.186 C 
DOCKED: ATOM     38  O1A HEM A1501      52.934  84.553   6.566 -1.18 -1.72    -0.647 OA
DOCKED: ATOM     39  O2A HEM A1501      51.159  83.640   5.641 -0.92 -1.33    -0.647 OA
DOCKED: ENDBRANCH  36  37
DOCKED: ENDBRANCH  35  36
DOCKED: ENDBRANCH   6  35
DOCKED: BRANCH  17  40
DOCKED: ATOM     40  CAC HEM A1501      55.861  76.466  15.916 -0.55 +0.00    +0.001 C 
DOCKED: ATOM     41  CBC HEM A1501      55.186  75.890  16.922 -0.64 +0.00    +0.000 C 
DOCKED: ENDBRANCH  17  40
DOCKED: BRANCH  12  42
DOCKED: ATOM     42  CAB HEM A1501      55.559  72.348   9.231 -0.55 +0.00    +0.001 C 
DOCKED: ATOM     43  CBB HEM A1501      55.601  71.309   8.421 -0.55 +0.00    +0.000 C 
DOCKED: ENDBRANCH  12  42
DOCKED: TORSDOF 8
DOCKED: TER
DOCKED: ENDMDL
________________________________________________________________________________


	BEGINNING GENETIC ALGORITHM DOCKING 87 of 100
Run: 87 Seed: 603096119 665616849 [ Run 87 of 100 GA/GALS ]
Beginning LAMARCKIAN GENETIC ALGORITHM (LGA), with a maximum of 2500000 energy evaluations.

Final-Value: -23.486


	FINAL GENETIC ALGORITHM DOCKED STATE
	_______________________________________________


Detailed state:  trans 54.936 78.820 10.655 quatxyzw -0.168196 0.976021 -0.138147 0.002787 center 54.495 78.699 10.493 ntor 8 123.8713 45.6899 -108.0897 -19.0197 8.7879 16.2470 174.3878 151.2565
State:	 54.936  78.820  10.655  -0.168  0.976 -0.138 179.681    123.87   45.69 -108.09  -19.02    8.79   16.25  174.39  151.26

DOCKED: MODEL       87
DOCKED: USER    Run = 87
DOCKED: USER    DPF = C:/Users/georg/Desktop/Dock/executables_autodock_tools/receptor.dpf
DOCKED: USER  
DOCKED: USER    Estimated Free Energy of Binding    =  -20.57 kcal/mol  [=(1)+(2)+(3)-(4)]
DOCKED: USER    Estimated Inhibition Constant, Ki   =  839.15 aM (attomolar)  [Temperature = 298.15 K]
DOCKED: USER    
DOCKED: USER    (1) Final Intermolecular Energy     =  -22.95 kcal/mol
DOCKED: USER        vdW + Hbond + desolv Energy     =  -18.42 kcal/mol
DOCKED: USER        Electrostatic Energy            =   -4.53 kcal/mol
DOCKED: USER    (2) Final Total Internal Energy     =   -0.53 kcal/mol
DOCKED: USER    (3) Torsional Free Energy           =   +2.39 kcal/mol
DOCKED: USER    (4) Unbound System's Energy  [=(2)] =   -0.53 kcal/mol
DOCKED: USER    
DOCKED: USER    
DOCKED: USER    NEWDPF move ligand.pdbqt
DOCKED: USER    NEWDPF about 54.495000 78.699000 10.493000
DOCKED: USER    NEWDPF tran0 54.935877 78.820475 10.654573
DOCKED: USER    NEWDPF quaternion0 -0.168196 0.976021 -0.138147 0.002787
DOCKED: USER    NEWDPF axisangle0 -0.168196 0.976025 -0.138147 179.680661
DOCKED: USER    NEWDPF quat0 -0.168196 0.976025 -0.138147 179.680661
DOCKED: USER    NEWDPF dihe0 123.87 45.69 -108.09 -19.02 8.79 16.25 174.39 151.26 
DOCKED: USER  keepresnum = 1 
DOCKED: USER  
DOCKED: REMARK  8 active torsions:
DOCKED: REMARK  status: ('A' for Active; 'I' for Inactive)
DOCKED: REMARK    1  A    between atoms: C2A_3624  and  CAA_3628 
DOCKED: REMARK    2  A    between atoms: CAA_3628  and  CBA_3629 
DOCKED: REMARK    3  A    between atoms: CBA_3629  and  CGA_3630 
DOCKED: REMARK    4  A    between atoms: C3B_3635  and  CAB_3638 
DOCKED: REMARK    5  A    between atoms: C3C_3642  and  CAC_3645 
DOCKED: REMARK    6  A    between atoms: C3D_3649  and  CAD_3652 
DOCKED: REMARK    7  A    between atoms: CAD_3652  and  CBD_3653 
DOCKED: REMARK    8  A    between atoms: CBD_3653  and  CGD_3654 
DOCKED: USER                              x       y       z     vdW  Elec       q    Type
DOCKED: USER                           _______ _______ _______ _____ _____    ______ ____
DOCKED: ROOT
DOCKED: ATOM      1  CHA HEM A1501      54.215  81.065  10.421 -0.26 +0.04    +0.038 A 
DOCKED: ATOM      2  CHB HEM A1501      54.442  77.312   7.420 -0.40 +0.03    +0.038 A 
DOCKED: ATOM      3  CHC HEM A1501      55.410  74.377  11.125 -0.41 +0.01    +0.038 A 
DOCKED: ATOM      4  CHD HEM A1501      55.247  78.146  14.122 -0.38 +0.02    +0.038 A 
DOCKED: ATOM      5  C1A HEM A1501      54.218  80.301   9.258 -0.25 +0.08    +0.079 A 
DOCKED: ATOM      6  C2A HEM A1501      54.010  80.783   7.889 -0.35 -0.01    -0.006 A 
DOCKED: ATOM      7  C3A HEM A1501      54.075  79.731   7.087 -0.37 -0.01    -0.007 A 
DOCKED: ATOM      8  C4A HEM A1501      54.331  78.595   7.919 -0.33 +0.06    +0.079 A 
DOCKED: ATOM      9  CMA HEM A1501      53.936  79.712   5.595 -0.46 +0.03    +0.032 C 
DOCKED: ATOM     10  C1B HEM A1501      54.696  76.171   8.158 -0.36 +0.05    +0.079 A 
DOCKED: ATOM     11  C2B HEM A1501      54.785  74.833   7.585 -0.48 -0.00    -0.003 A 
DOCKED: ATOM     12  C3B HEM A1501      55.042  74.010   8.635 -0.45 +0.01    +0.015 A 
DOCKED: ATOM     13  C4B HEM A1501      55.132  74.845   9.829 -0.37 +0.03    +0.083 A 
DOCKED: ATOM     14  CMB HEM A1501      54.610  74.510   6.127 -0.59 +0.02    +0.033 C 
DOCKED: ATOM     15  C1C HEM A1501      55.494  75.100  12.285 -0.35 +0.03    +0.079 A 
DOCKED: ATOM     16  C2C HEM A1501      55.864  74.572  13.569 -0.43 -0.00    -0.003 A 
DOCKED: ATOM     17  C3C HEM A1501      55.842  75.620  14.431 -0.39 +0.01    +0.015 A 
DOCKED: ATOM     18  C4C HEM A1501      55.441  76.805  13.647 -0.31 +0.03    +0.083 A 
DOCKED: ATOM     19  CMC HEM A1501      56.198  73.114  13.813 -0.54 +0.01    +0.033 C 
DOCKED: ATOM     20  C1D HEM A1501      54.888  79.303  13.388 -0.32 +0.04    +0.079 A 
DOCKED: ATOM     21  C2D HEM A1501      54.721  80.611  13.946 -0.39 -0.00    -0.007 A 
DOCKED: ATOM     22  C3D HEM A1501      54.429  81.436  12.908 -0.33 -0.00    -0.006 A 
DOCKED: ATOM     23  C4D HEM A1501      54.425  80.627  11.705 -0.22 +0.07    +0.079 A 
DOCKED: ATOM     24  CMD HEM A1501      54.846  80.987  15.369 -0.41 +0.01    +0.032 C 
DOCKED: ATOM     25  NA  HEM A1501      54.444  78.950   9.231 -0.18 -0.20    -0.246 N 
DOCKED: ATOM     26  NB  HEM A1501      54.897  76.137   9.518 -0.10 -0.12    -0.246 N 
DOCKED: ATOM     27  NC  HEM A1501      55.275  76.435  12.376 -0.14 -0.11    -0.246 N 
DOCKED: ATOM     28  ND  HEM A1501      54.710  79.339  12.034 -0.12 -0.17    -0.246 N 
DOCKED: ATOM     29 FE   HEM A1501      54.842  77.719  10.811 -0.07 +0.00    +0.000 Fe
DOCKED: ENDROOT
DOCKED: BRANCH  22  30
DOCKED: ATOM     30  CAD HEM A1501      54.175  82.889  13.050 -0.39 +0.04    +0.039 C 
DOCKED: BRANCH  30  31
DOCKED: ATOM     31  CBD HEM A1501      52.682  83.215  13.013 -0.51 +0.11    +0.102 C 
DOCKED: BRANCH  31  32
DOCKED: ATOM     32  CGD HEM A1501      52.403  84.701  12.893 -0.43 +0.28    +0.186 C 
DOCKED: ATOM     33  O1D HEM A1501      53.246  85.294  12.186 -0.59 -1.49    -0.647 OA
DOCKED: ATOM     34  O2D HEM A1501      51.357  85.272  13.437 -0.63 -0.96    -0.647 OA
DOCKED: ENDBRANCH  31  32
DOCKED: ENDBRANCH  30  31
DOCKED: ENDBRANCH  22  30
DOCKED: BRANCH   6  35
DOCKED: ATOM     35  CAA HEM A1501      53.774  82.183   7.439 -0.43 +0.06    +0.039 C 
DOCKED: BRANCH  35  36
DOCKED: ATOM     36  CBA HEM A1501      52.355  82.380   6.941 -0.57 +0.16    +0.102 C 
DOCKED: BRANCH  36  37
DOCKED: ATOM     37  CGA HEM A1501      52.130  83.674   6.209 -0.64 +0.35    +0.186 C 
DOCKED: ATOM     38  O1A HEM A1501      51.116  83.776   5.481 -1.04 -1.33    -0.647 OA
DOCKED: ATOM     39  O2A HEM A1501      52.938  84.608   6.393 -1.16 -1.70    -0.647 OA
DOCKED: ENDBRANCH  36  37
DOCKED: ENDBRANCH  35  36
DOCKED: ENDBRANCH   6  35
DOCKED: BRANCH  17  40
DOCKED: ATOM     40  CAC HEM A1501      56.141  75.624  15.868 -0.54 +0.00    +0.001 C 
DOCKED: ATOM     41  CBC HEM A1501      55.294  75.927  16.864 -0.64 +0.00    +0.000 C 
DOCKED: ENDBRANCH  17  40
DOCKED: BRANCH  12  42
DOCKED: ATOM     42  CAB HEM A1501      55.226  72.542   8.699 -0.55 +0.00    +0.001 C 
DOCKED: ATOM     43  CBB HEM A1501      55.568  71.682   7.760 -0.55 +0.00    +0.000 C 
DOCKED: ENDBRANCH  12  42
DOCKED: TORSDOF 8
DOCKED: TER
DOCKED: ENDMDL
________________________________________________________________________________


	BEGINNING GENETIC ALGORITHM DOCKING 88 of 100
Run: 88 Seed: 432897446 576390135 [ Run 88 of 100 GA/GALS ]
Beginning LAMARCKIAN GENETIC ALGORITHM (LGA), with a maximum of 2500000 energy evaluations.

Final-Value: -23.346


	FINAL GENETIC ALGORITHM DOCKED STATE
	_______________________________________________


Detailed state:  trans 54.882 79.120 10.837 quatxyzw 0.193006 -0.967482 0.162126 0.021026 center 54.495 78.699 10.493 ntor 8 172.4049 -54.5131 -158.2443 161.7714 -6.1623 5.7129 -162.5798 147.2090
State:	 54.882  79.120  10.837   0.193 -0.968  0.162 177.590    172.40  -54.51 -158.24  161.77   -6.16    5.71 -162.58  147.21

DOCKED: MODEL       88
DOCKED: USER    Run = 88
DOCKED: USER    DPF = C:/Users/georg/Desktop/Dock/executables_autodock_tools/receptor.dpf
DOCKED: USER  
DOCKED: USER    Estimated Free Energy of Binding    =  -20.41 kcal/mol  [=(1)+(2)+(3)-(4)]
DOCKED: USER    Estimated Inhibition Constant, Ki   =    1.09 fM (femtomolar)  [Temperature = 298.15 K]
DOCKED: USER    
DOCKED: USER    (1) Final Intermolecular Energy     =  -22.80 kcal/mol
DOCKED: USER        vdW + Hbond + desolv Energy     =  -18.63 kcal/mol
DOCKED: USER        Electrostatic Energy            =   -4.17 kcal/mol
DOCKED: USER    (2) Final Total Internal Energy     =   -0.55 kcal/mol
DOCKED: USER    (3) Torsional Free Energy           =   +2.39 kcal/mol
DOCKED: USER    (4) Unbound System's Energy  [=(2)] =   -0.55 kcal/mol
DOCKED: USER    
DOCKED: USER    
DOCKED: USER    NEWDPF move ligand.pdbqt
DOCKED: USER    NEWDPF about 54.495000 78.699000 10.493000
DOCKED: USER    NEWDPF tran0 54.881647 79.120223 10.836621
DOCKED: USER    NEWDPF quaternion0 0.193006 -0.967482 0.162126 0.021026
DOCKED: USER    NEWDPF axisangle0 0.193049 -0.967696 0.162162 177.590403
DOCKED: USER    NEWDPF quat0 0.193049 -0.967696 0.162162 177.590403
DOCKED: USER    NEWDPF dihe0 172.40 -54.51 -158.24 161.77 -6.16 5.71 -162.58 147.21 
DOCKED: USER  keepresnum = 1 
DOCKED: USER  
DOCKED: REMARK  8 active torsions:
DOCKED: REMARK  status: ('A' for Active; 'I' for Inactive)
DOCKED: REMARK    1  A    between atoms: C2A_3624  and  CAA_3628 
DOCKED: REMARK    2  A    between atoms: CAA_3628  and  CBA_3629 
DOCKED: REMARK    3  A    between atoms: CBA_3629  and  CGA_3630 
DOCKED: REMARK    4  A    between atoms: C3B_3635  and  CAB_3638 
DOCKED: REMARK    5  A    between atoms: C3C_3642  and  CAC_3645 
DOCKED: REMARK    6  A    between atoms: C3D_3649  and  CAD_3652 
DOCKED: REMARK    7  A    between atoms: CAD_3652  and  CBD_3653 
DOCKED: REMARK    8  A    between atoms: CBD_3653  and  CGD_3654 
DOCKED: USER                              x       y       z     vdW  Elec       q    Type
DOCKED: USER                           _______ _______ _______ _____ _____    ______ ____
DOCKED: ROOT
DOCKED: ATOM      1  CHA HEM A1501      54.046  81.307  10.475 -0.28 +0.04    +0.038 A 
DOCKED: ATOM      2  CHB HEM A1501      54.633  77.458   7.649 -0.36 +0.03    +0.038 A 
DOCKED: ATOM      3  CHC HEM A1501      55.584  74.734  11.517 -0.39 +0.01    +0.038 A 
DOCKED: ATOM      4  CHD HEM A1501      55.062  78.603  14.341 -0.39 +0.02    +0.038 A 
DOCKED: ATOM      5  C1A HEM A1501      54.149  80.500   9.347 -0.26 +0.08    +0.079 A 
DOCKED: ATOM      6  C2A HEM A1501      53.981  80.914   7.950 -0.36 -0.01    -0.006 A 
DOCKED: ATOM      7  C3A HEM A1501      54.145  79.836   7.197 -0.36 -0.01    -0.007 A 
DOCKED: ATOM      8  C4A HEM A1501      54.424  78.751   8.088 -0.31 +0.06    +0.079 A 
DOCKED: ATOM      9  CMA HEM A1501      54.080  79.750   5.703 -0.47 +0.03    +0.032 C 
DOCKED: ATOM     10  C1B HEM A1501      54.915  76.364   8.447 -0.33 +0.05    +0.079 A 
DOCKED: ATOM     11  C2B HEM A1501      55.108  75.013   7.935 -0.45 -0.00    -0.003 A 
DOCKED: ATOM     12  C3B HEM A1501      55.360  74.248   9.029 -0.44 +0.01    +0.015 A 
DOCKED: ATOM     13  C4B HEM A1501      55.345  75.133  10.190 -0.34 +0.03    +0.083 A 
DOCKED: ATOM     14  CMB HEM A1501      55.024  74.622   6.485 -0.58 +0.02    +0.033 C 
DOCKED: ATOM     15  C1C HEM A1501      55.571  75.506  12.647 -0.33 +0.03    +0.079 A 
DOCKED: ATOM     16  C2C HEM A1501      55.908  75.052  13.968 -0.42 -0.00    -0.003 A 
DOCKED: ATOM     17  C3C HEM A1501      55.784  76.131  14.783 -0.40 +0.01    +0.015 A 
DOCKED: ATOM     18  C4C HEM A1501      55.354  77.258  13.932 -0.33 +0.03    +0.083 A 
DOCKED: ATOM     19  CMC HEM A1501      56.311  73.627  14.289 -0.55 +0.01    +0.033 C 
DOCKED: ATOM     20  C1D HEM A1501      54.673  79.707  13.542 -0.34 +0.05    +0.079 A 
DOCKED: ATOM     21  C2D HEM A1501      54.405  81.024  14.036 -0.41 -0.00    -0.007 A 
DOCKED: ATOM     22  C3D HEM A1501      54.118  81.789  12.951 -0.37 -0.00    -0.006 A 
DOCKED: ATOM     23  C4D HEM A1501      54.218  80.933  11.785 -0.24 +0.07    +0.079 A 
DOCKED: ATOM     24  CMD HEM A1501      54.438  81.463  15.445 -0.47 +0.01    +0.032 C 
DOCKED: ATOM     25  NA  HEM A1501      54.453  79.164   9.387 -0.17 -0.20    -0.246 N 
DOCKED: ATOM     26  NB  HEM A1501      55.051  76.396   9.814 +0.04 -0.12    -0.246 N 
DOCKED: ATOM     27  NC  HEM A1501      55.272  76.828  12.671 -0.16 -0.11    -0.246 N 
DOCKED: ATOM     28  ND  HEM A1501      54.559  79.679  12.181 -0.14 -0.18    -0.246 N 
DOCKED: ATOM     29 FE   HEM A1501      54.844  78.023  11.035 -0.07 +0.00    +0.000 Fe
DOCKED: ENDROOT
DOCKED: BRANCH  22  30
DOCKED: ATOM     30  CAD HEM A1501      53.775  83.229  13.019 -0.45 +0.04    +0.039 C 
DOCKED: BRANCH  30  31
DOCKED: ATOM     31  CBD HEM A1501      52.329  83.451  13.463 -0.50 +0.11    +0.102 C 
DOCKED: BRANCH  31  32
DOCKED: ATOM     32  CGD HEM A1501      51.982  84.918  13.636 -0.50 +0.26    +0.186 C 
DOCKED: ATOM     33  O1D HEM A1501      52.994  85.650  13.681 -0.50 -1.14    -0.647 OA
DOCKED: ATOM     34  O2D HEM A1501      50.747  85.354  13.682 -0.97 -0.91    -0.647 OA
DOCKED: ENDBRANCH  31  32
DOCKED: ENDBRANCH  30  31
DOCKED: ENDBRANCH  22  30
DOCKED: BRANCH   6  35
DOCKED: ATOM     35  CAA HEM A1501      53.688  82.278   7.431 -0.44 +0.06    +0.039 C 
DOCKED: BRANCH  35  36
DOCKED: ATOM     36  CBA HEM A1501      52.325  82.346   6.772 -0.58 +0.16    +0.102 C 
DOCKED: BRANCH  36  37
DOCKED: ATOM     37  CGA HEM A1501      51.984  83.690   6.189 -0.63 +0.36    +0.186 C 
DOCKED: ATOM     38  O1A HEM A1501      52.651  84.684   6.560 -1.02 -1.73    -0.647 OA
DOCKED: ATOM     39  O2A HEM A1501      51.083  83.752   5.328 -1.05 -1.32    -0.647 OA
DOCKED: ENDBRANCH  36  37
DOCKED: ENDBRANCH  35  36
DOCKED: ENDBRANCH   6  35
DOCKED: BRANCH  17  40
DOCKED: ATOM     40  CAC HEM A1501      56.011  76.209  16.231 -0.57 +0.00    +0.001 C 
DOCKED: ATOM     41  CBC HEM A1501      55.272  75.635  17.193 -0.66 +0.00    +0.000 C 
DOCKED: ENDBRANCH  17  40
DOCKED: BRANCH  12  42
DOCKED: ATOM     42  CAB HEM A1501      55.625  72.797   9.164 -0.49 +0.00    +0.001 C 
DOCKED: ATOM     43  CBB HEM A1501      54.796  71.772   9.147 -0.58 +0.00    +0.000 C 
DOCKED: ENDBRANCH  12  42
DOCKED: TORSDOF 8
DOCKED: TER
DOCKED: ENDMDL
________________________________________________________________________________


	BEGINNING GENETIC ALGORITHM DOCKING 89 of 100
Run: 89 Seed: 1624688385 1479525774 [ Run 89 of 100 GA/GALS ]
Beginning LAMARCKIAN GENETIC ALGORITHM (LGA), with a maximum of 2500000 energy evaluations.

Final-Value: -23.217


	FINAL GENETIC ALGORITHM DOCKED STATE
	_______________________________________________


Detailed state:  trans 55.006 78.678 10.253 quatxyzw -0.162789 0.972649 -0.165557 -0.006727 center 54.495 78.699 10.493 ntor 8 117.0746 -114.5947 -143.8380 -51.0843 10.5965 14.3960 -151.6387 -180.0000
State:	 55.006  78.678  10.253  -0.163  0.973 -0.166 -179.229    117.07 -114.59 -143.84  -51.08   10.60   14.40 -151.64 -180.00

DOCKED: MODEL       89
DOCKED: USER    Run = 89
DOCKED: USER    DPF = C:/Users/georg/Desktop/Dock/executables_autodock_tools/receptor.dpf
DOCKED: USER  
DOCKED: USER    Estimated Free Energy of Binding    =  -20.31 kcal/mol  [=(1)+(2)+(3)-(4)]
DOCKED: USER    Estimated Inhibition Constant, Ki   =    1.31 fM (femtomolar)  [Temperature = 298.15 K]
DOCKED: USER    
DOCKED: USER    (1) Final Intermolecular Energy     =  -22.69 kcal/mol
DOCKED: USER        vdW + Hbond + desolv Energy     =  -18.25 kcal/mol
DOCKED: USER        Electrostatic Energy            =   -4.44 kcal/mol
DOCKED: USER    (2) Final Total Internal Energy     =   -0.53 kcal/mol
DOCKED: USER    (3) Torsional Free Energy           =   +2.39 kcal/mol
DOCKED: USER    (4) Unbound System's Energy  [=(2)] =   -0.53 kcal/mol
DOCKED: USER    
DOCKED: USER    
DOCKED: USER    NEWDPF move ligand.pdbqt
DOCKED: USER    NEWDPF about 54.495000 78.699000 10.493000
DOCKED: USER    NEWDPF tran0 55.005874 78.677901 10.252982
DOCKED: USER    NEWDPF quaternion0 -0.162789 0.972649 -0.165557 -0.006727
DOCKED: USER    NEWDPF axisangle0 -0.162793 0.972671 -0.165561 -179.229136
DOCKED: USER    NEWDPF quat0 -0.162793 0.972671 -0.165561 -179.229136
DOCKED: USER    NEWDPF dihe0 117.07 -114.59 -143.84 -51.08 10.60 14.40 -151.64 -180.00 
DOCKED: USER  keepresnum = 1 
DOCKED: USER  
DOCKED: REMARK  8 active torsions:
DOCKED: REMARK  status: ('A' for Active; 'I' for Inactive)
DOCKED: REMARK    1  A    between atoms: C2A_3624  and  CAA_3628 
DOCKED: REMARK    2  A    between atoms: CAA_3628  and  CBA_3629 
DOCKED: REMARK    3  A    between atoms: CBA_3629  and  CGA_3630 
DOCKED: REMARK    4  A    between atoms: C3B_3635  and  CAB_3638 
DOCKED: REMARK    5  A    between atoms: C3C_3642  and  CAC_3645 
DOCKED: REMARK    6  A    between atoms: C3D_3649  and  CAD_3652 
DOCKED: REMARK    7  A    between atoms: CAD_3652  and  CBD_3653 
DOCKED: REMARK    8  A    between atoms: CBD_3653  and  CGD_3654 
DOCKED: USER                              x       y       z     vdW  Elec       q    Type
DOCKED: USER                           _______ _______ _______ _____ _____    ______ ____
DOCKED: ROOT
DOCKED: ATOM      1  CHA HEM A1501      54.308  80.912   9.883 -0.27 +0.04    +0.038 A 
DOCKED: ATOM      2  CHB HEM A1501      54.595  77.008   7.087 -0.40 +0.03    +0.038 A 
DOCKED: ATOM      3  CHC HEM A1501      55.433  74.262  10.964 -0.41 +0.01    +0.038 A 
DOCKED: ATOM      4  CHD HEM A1501      55.211  78.181  13.758 -0.36 +0.02    +0.038 A 
DOCKED: ATOM      5  C1A HEM A1501      54.340  80.089   8.762 -0.27 +0.08    +0.079 A 
DOCKED: ATOM      6  C2A HEM A1501      54.175  80.502   7.364 -0.34 -0.01    -0.006 A 
DOCKED: ATOM      7  C3A HEM A1501      54.256  79.409   6.619 -0.37 -0.01    -0.007 A 
DOCKED: ATOM      8  C4A HEM A1501      54.479  78.316   7.516 -0.33 +0.06    +0.079 A 
DOCKED: ATOM      9  CMA HEM A1501      54.160  79.314   5.127 -0.50 +0.03    +0.032 C 
DOCKED: ATOM     10  C1B HEM A1501      54.819  75.905   7.890 -0.38 +0.04    +0.079 A 
DOCKED: ATOM     11  C2B HEM A1501      54.915  74.539   7.388 -0.48 -0.00    -0.003 A 
DOCKED: ATOM     12  C3B HEM A1501      55.135  73.769   8.486 -0.45 +0.01    +0.015 A 
DOCKED: ATOM     13  C4B HEM A1501      55.197  74.664   9.638 -0.38 +0.03    +0.083 A 
DOCKED: ATOM     14  CMB HEM A1501      54.780  74.143   5.944 -0.59 +0.02    +0.033 C 
DOCKED: ATOM     15  C1C HEM A1501      55.489  75.042  12.087 -0.35 +0.03    +0.079 A 
DOCKED: ATOM     16  C2C HEM A1501      55.818  74.579  13.407 -0.42 -0.00    -0.003 A 
DOCKED: ATOM     17  C3C HEM A1501      55.779  75.671  14.213 -0.38 +0.01    +0.015 A 
DOCKED: ATOM     18  C4C HEM A1501      55.409  76.816  13.358 -0.30 +0.04    +0.083 A 
DOCKED: ATOM     19  CMC HEM A1501      56.133  73.134  13.735 -0.53 +0.01    +0.033 C 
DOCKED: ATOM     20  C1D HEM A1501      54.882  79.301  12.956 -0.28 +0.05    +0.079 A 
DOCKED: ATOM     21  C2D HEM A1501      54.709  80.636  13.441 -0.35 -0.00    -0.007 A 
DOCKED: ATOM     22  C3D HEM A1501      54.453  81.409  12.354 -0.30 -0.00    -0.006 A 
DOCKED: ATOM     23  C4D HEM A1501      54.478  80.539  11.194 -0.20 +0.07    +0.079 A 
DOCKED: ATOM     24  CMD HEM A1501      54.795  81.084  14.845 -0.45 +0.02    +0.032 C 
DOCKED: ATOM     25  NA  HEM A1501      54.556  78.737   8.811 -0.20 -0.19    -0.246 N 
DOCKED: ATOM     26  NB  HEM A1501      54.980  75.940   9.254 -0.21 -0.12    -0.246 N 
DOCKED: ATOM     27  NC  HEM A1501      55.277  76.382  12.103 -0.11 -0.11    -0.246 N 
DOCKED: ATOM     28  ND  HEM A1501      54.744  79.268  11.597 -0.09 -0.17    -0.246 N 
DOCKED: ATOM     29 FE   HEM A1501      54.900  77.587  10.462 -0.07 +0.00    +0.000 Fe
DOCKED: ENDROOT
DOCKED: BRANCH  22  30
DOCKED: ATOM     30  CAD HEM A1501      54.206  82.869  12.413 -0.37 +0.04    +0.039 C 
DOCKED: BRANCH  30  31
DOCKED: ATOM     31  CBD HEM A1501      52.894  83.197  13.126 -0.50 +0.11    +0.102 C 
DOCKED: BRANCH  31  32
DOCKED: ATOM     32  CGD HEM A1501      52.464  84.640  12.938 -0.46 +0.27    +0.186 C 
DOCKED: ATOM     33  O1D HEM A1501      53.270  85.297  12.244 -0.60 -1.48    -0.647 OA
DOCKED: ATOM     34  O2D HEM A1501      51.339  85.112  13.417 -0.52 -0.92    -0.647 OA
DOCKED: ENDBRANCH  31  32
DOCKED: ENDBRANCH  30  31
DOCKED: ENDBRANCH  22  30
DOCKED: BRANCH   6  35
DOCKED: ATOM     35  CAA HEM A1501      53.963  81.877   6.837 -0.43 +0.05    +0.039 C 
DOCKED: BRANCH  35  36
DOCKED: ATOM     36  CBA HEM A1501      52.510  82.300   6.942 -0.56 +0.16    +0.102 C 
DOCKED: BRANCH  36  37
DOCKED: ATOM     37  CGA HEM A1501      52.180  83.571   6.209 -0.63 +0.35    +0.186 C 
DOCKED: ATOM     38  O1A HEM A1501      51.194  83.573   5.437 -1.06 -1.29    -0.647 OA
DOCKED: ATOM     39  O2A HEM A1501      52.874  84.583   6.435 -1.15 -1.68    -0.647 OA
DOCKED: ENDBRANCH  36  37
DOCKED: ENDBRANCH  35  36
DOCKED: ENDBRANCH   6  35
DOCKED: BRANCH  17  40
DOCKED: ATOM     40  CAC HEM A1501      56.035  75.746  15.656 -0.53 +0.00    +0.001 C 
DOCKED: ATOM     41  CBC HEM A1501      55.205  76.224  16.596 -0.60 +0.00    +0.000 C 
DOCKED: ENDBRANCH  17  40
DOCKED: BRANCH  12  42
DOCKED: ATOM     42  CAB HEM A1501      55.307  72.305   8.630 -0.55 +0.00    +0.001 C 
DOCKED: ATOM     43  CBB HEM A1501      54.834  71.475   9.538 -0.53 +0.00    +0.000 C 
DOCKED: ENDBRANCH  12  42
DOCKED: TORSDOF 8
DOCKED: TER
DOCKED: ENDMDL
________________________________________________________________________________


	BEGINNING GENETIC ALGORITHM DOCKING 90 of 100
Run: 90 Seed: 651250939 143006600 [ Run 90 of 100 GA/GALS ]
Beginning LAMARCKIAN GENETIC ALGORITHM (LGA), with a maximum of 2500000 energy evaluations.

Final-Value: -23.402


	FINAL GENETIC ALGORITHM DOCKED STATE
	_______________________________________________


Detailed state:  trans 54.940 79.151 10.941 quatxyzw 0.190366 -0.967487 0.164793 0.023934 center 54.495 78.699 10.493 ntor 8 158.5953 -49.7570 -136.0998 -179.7039 -17.3527 0.5216 180.0000 138.2199
State:	 54.940  79.151  10.941   0.190 -0.968  0.165 177.257    158.60  -49.76 -136.10 -179.70  -17.35    0.52  180.00  138.22

DOCKED: MODEL       90
DOCKED: USER    Run = 90
DOCKED: USER    DPF = C:/Users/georg/Desktop/Dock/executables_autodock_tools/receptor.dpf
DOCKED: USER  
DOCKED: USER    Estimated Free Energy of Binding    =  -20.49 kcal/mol  [=(1)+(2)+(3)-(4)]
DOCKED: USER    Estimated Inhibition Constant, Ki   =  962.80 aM (attomolar)  [Temperature = 298.15 K]
DOCKED: USER    
DOCKED: USER    (1) Final Intermolecular Energy     =  -22.87 kcal/mol
DOCKED: USER        vdW + Hbond + desolv Energy     =  -18.70 kcal/mol
DOCKED: USER        Electrostatic Energy            =   -4.17 kcal/mol
DOCKED: USER    (2) Final Total Internal Energy     =   -0.53 kcal/mol
DOCKED: USER    (3) Torsional Free Energy           =   +2.39 kcal/mol
DOCKED: USER    (4) Unbound System's Energy  [=(2)] =   -0.53 kcal/mol
DOCKED: USER    
DOCKED: USER    
DOCKED: USER    NEWDPF move ligand.pdbqt
DOCKED: USER    NEWDPF about 54.495000 78.699000 10.493000
DOCKED: USER    NEWDPF tran0 54.939550 79.150897 10.941177
DOCKED: USER    NEWDPF quaternion0 0.190366 -0.967487 0.164793 0.023934
DOCKED: USER    NEWDPF axisangle0 0.190420 -0.967764 0.164841 177.257077
DOCKED: USER    NEWDPF quat0 0.190420 -0.967764 0.164841 177.257077
DOCKED: USER    NEWDPF dihe0 158.60 -49.76 -136.10 -179.70 -17.35 0.52 180.00 138.22 
DOCKED: USER  keepresnum = 1 
DOCKED: USER  
DOCKED: REMARK  8 active torsions:
DOCKED: REMARK  status: ('A' for Active; 'I' for Inactive)
DOCKED: REMARK    1  A    between atoms: C2A_3624  and  CAA_3628 
DOCKED: REMARK    2  A    between atoms: CAA_3628  and  CBA_3629 
DOCKED: REMARK    3  A    between atoms: CBA_3629  and  CGA_3630 
DOCKED: REMARK    4  A    between atoms: C3B_3635  and  CAB_3638 
DOCKED: REMARK    5  A    between atoms: C3C_3642  and  CAC_3645 
DOCKED: REMARK    6  A    between atoms: C3D_3649  and  CAD_3652 
DOCKED: REMARK    7  A    between atoms: CAD_3652  and  CBD_3653 
DOCKED: REMARK    8  A    between atoms: CBD_3653  and  CGD_3654 
DOCKED: USER                              x       y       z     vdW  Elec       q    Type
DOCKED: USER                           _______ _______ _______ _____ _____    ______ ____
DOCKED: ROOT
DOCKED: ATOM      1  CHA HEM A1501      54.116  81.340  10.564 -0.28 +0.04    +0.038 A 
DOCKED: ATOM      2  CHB HEM A1501      54.708  77.477   7.759 -0.35 +0.03    +0.038 A 
DOCKED: ATOM      3  CHC HEM A1501      55.618  74.765  11.644 -0.39 +0.01    +0.038 A 
DOCKED: ATOM      4  CHD HEM A1501      55.091  78.647  14.448 -0.38 +0.01    +0.038 A 
DOCKED: ATOM      5  C1A HEM A1501      54.224  80.527   9.441 -0.25 +0.08    +0.079 A 
DOCKED: ATOM      6  C2A HEM A1501      54.069  80.937   8.041 -0.35 -0.01    -0.006 A 
DOCKED: ATOM      7  C3A HEM A1501      54.234  79.855   7.294 -0.35 -0.01    -0.007 A 
DOCKED: ATOM      8  C4A HEM A1501      54.501  78.773   8.191 -0.30 +0.06    +0.079 A 
DOCKED: ATOM      9  CMA HEM A1501      54.179  79.764   5.799 -0.46 +0.03    +0.032 C 
DOCKED: ATOM     10  C1B HEM A1501      54.979  76.385   8.562 -0.31 +0.04    +0.079 A 
DOCKED: ATOM     11  C2B HEM A1501      55.170  75.031   8.058 -0.45 -0.00    -0.003 A 
DOCKED: ATOM     12  C3B HEM A1501      55.411  74.269   9.157 -0.44 +0.01    +0.015 A 
DOCKED: ATOM     13  C4B HEM A1501      55.390  75.160  10.314 -0.34 +0.03    +0.083 A 
DOCKED: ATOM     14  CMB HEM A1501      55.095  74.635   6.609 -0.57 +0.02    +0.033 C 
DOCKED: ATOM     15  C1C HEM A1501      55.599  75.541  12.771 -0.33 +0.03    +0.079 A 
DOCKED: ATOM     16  C2C HEM A1501      55.924  75.091  14.096 -0.42 -0.00    -0.003 A 
DOCKED: ATOM     17  C3C HEM A1501      55.799  76.174  14.906 -0.41 +0.01    +0.015 A 
DOCKED: ATOM     18  C4C HEM A1501      55.381  77.299  14.047 -0.34 +0.03    +0.083 A 
DOCKED: ATOM     19  CMC HEM A1501      56.319  73.666  14.426 -0.56 +0.01    +0.033 C 
DOCKED: ATOM     20  C1D HEM A1501      54.713  79.749  13.643 -0.34 +0.05    +0.079 A 
DOCKED: ATOM     21  C2D HEM A1501      54.447  81.069  14.129 -0.41 -0.00    -0.007 A 
DOCKED: ATOM     22  C3D HEM A1501      54.171  81.831  13.040 -0.36 -0.00    -0.006 A 
DOCKED: ATOM     23  C4D HEM A1501      54.276  80.971  11.877 -0.25 +0.07    +0.079 A 
DOCKED: ATOM     24  CMD HEM A1501      54.472  81.513  15.537 -0.48 +0.01    +0.032 C 
DOCKED: ATOM     25  NA  HEM A1501      54.522  79.191   9.489 -0.16 -0.20    -0.246 N 
DOCKED: ATOM     26  NB  HEM A1501      55.105  76.422   9.930 +0.03 -0.12    -0.246 N 
DOCKED: ATOM     27  NC  HEM A1501      55.306  76.865  12.788 -0.17 -0.11    -0.246 N 
DOCKED: ATOM     28  ND  HEM A1501      54.610  79.716  12.280 -0.15 -0.17    -0.246 N 
DOCKED: ATOM     29 FE   HEM A1501      54.895  78.054  11.143 -0.07 +0.00    +0.000 Fe
DOCKED: ENDROOT
DOCKED: BRANCH  22  30
DOCKED: ATOM     30  CAD HEM A1501      53.834  83.273  13.099 -0.44 +0.04    +0.039 C 
DOCKED: BRANCH  30  31
DOCKED: ATOM     31  CBD HEM A1501      52.323  83.506  13.106 -0.51 +0.11    +0.102 C 
DOCKED: BRANCH  31  32
DOCKED: ATOM     32  CGD HEM A1501      51.943  84.911  13.534 -0.51 +0.26    +0.186 C 
DOCKED: ATOM     33  O1D HEM A1501      52.936  85.660  13.664 -0.50 -1.15    -0.647 OA
DOCKED: ATOM     34  O2D HEM A1501      50.699  85.292  13.693 -0.99 -0.89    -0.647 OA
DOCKED: ENDBRANCH  31  32
DOCKED: ENDBRANCH  30  31
DOCKED: ENDBRANCH  22  30
DOCKED: BRANCH   6  35
DOCKED: ATOM     35  CAA HEM A1501      53.785  82.300   7.515 -0.42 +0.06    +0.039 C 
DOCKED: BRANCH  35  36
DOCKED: ATOM     36  CBA HEM A1501      52.534  82.322   6.658 -0.57 +0.15    +0.102 C 
DOCKED: BRANCH  36  37
DOCKED: ATOM     37  CGA HEM A1501      52.146  83.688   6.162 -0.64 +0.35    +0.186 C 
DOCKED: ATOM     38  O1A HEM A1501      52.878  84.659   6.462 -1.10 -1.74    -0.647 OA
DOCKED: ATOM     39  O2A HEM A1501      51.137  83.790   5.435 -1.06 -1.32    -0.647 OA
DOCKED: ENDBRANCH  36  37
DOCKED: ENDBRANCH  35  36
DOCKED: ENDBRANCH   6  35
DOCKED: BRANCH  17  40
DOCKED: ATOM     40  CAC HEM A1501      56.016  76.257  16.355 -0.58 +0.00    +0.001 C 
DOCKED: ATOM     41  CBC HEM A1501      55.145  75.917  17.319 -0.68 +0.00    +0.000 C 
DOCKED: ENDBRANCH  17  40
DOCKED: BRANCH  12  42
DOCKED: ATOM     42  CAB HEM A1501      55.668  72.818   9.299 -0.48 +0.00    +0.001 C 
DOCKED: ATOM     43  CBB HEM A1501      54.848  71.791   9.197 -0.58 +0.00    +0.000 C 
DOCKED: ENDBRANCH  12  42
DOCKED: TORSDOF 8
DOCKED: TER
DOCKED: ENDMDL
________________________________________________________________________________


	BEGINNING GENETIC ALGORITHM DOCKING 91 of 100
Run: 91 Seed: 1241044260 960999327 [ Run 91 of 100 GA/GALS ]
Beginning LAMARCKIAN GENETIC ALGORITHM (LGA), with a maximum of 2500000 energy evaluations.

Final-Value: -23.167


	FINAL GENETIC ALGORITHM DOCKED STATE
	_______________________________________________


Detailed state:  trans 54.935 78.921 10.553 quatxyzw -0.178690 0.961999 -0.204143 -0.030887 center 54.495 78.699 10.493 ntor 8 -170.8882 10.9266 -145.3977 127.5972 -32.1672 7.1386 -162.6165 -172.3682
State:	 54.935  78.921  10.553  -0.179  0.962 -0.204 -176.460   -170.89   10.93 -145.40  127.60  -32.17    7.14 -162.62 -172.37

DOCKED: MODEL       91
DOCKED: USER    Run = 91
DOCKED: USER    DPF = C:/Users/georg/Desktop/Dock/executables_autodock_tools/receptor.dpf
DOCKED: USER  
DOCKED: USER    Estimated Free Energy of Binding    =  -20.20 kcal/mol  [=(1)+(2)+(3)-(4)]
DOCKED: USER    Estimated Inhibition Constant, Ki   =    1.55 fM (femtomolar)  [Temperature = 298.15 K]
DOCKED: USER    
DOCKED: USER    (1) Final Intermolecular Energy     =  -22.59 kcal/mol
DOCKED: USER        vdW + Hbond + desolv Energy     =  -18.47 kcal/mol
DOCKED: USER        Electrostatic Energy            =   -4.12 kcal/mol
DOCKED: USER    (2) Final Total Internal Energy     =   -0.58 kcal/mol
DOCKED: USER    (3) Torsional Free Energy           =   +2.39 kcal/mol
DOCKED: USER    (4) Unbound System's Energy  [=(2)] =   -0.58 kcal/mol
DOCKED: USER    
DOCKED: USER    
DOCKED: USER    NEWDPF move ligand.pdbqt
DOCKED: USER    NEWDPF about 54.495000 78.699000 10.493000
DOCKED: USER    NEWDPF tran0 54.935494 78.921145 10.552831
DOCKED: USER    NEWDPF quaternion0 -0.178690 0.961999 -0.204143 -0.030887
DOCKED: USER    NEWDPF axisangle0 -0.178775 0.962458 -0.204240 -176.460006
DOCKED: USER    NEWDPF quat0 -0.178775 0.962458 -0.204240 -176.460006
DOCKED: USER    NEWDPF dihe0 -170.89 10.93 -145.40 127.60 -32.17 7.14 -162.62 -172.37 
DOCKED: USER  keepresnum = 1 
DOCKED: USER  
DOCKED: REMARK  8 active torsions:
DOCKED: REMARK  status: ('A' for Active; 'I' for Inactive)
DOCKED: REMARK    1  A    between atoms: C2A_3624  and  CAA_3628 
DOCKED: REMARK    2  A    between atoms: CAA_3628  and  CBA_3629 
DOCKED: REMARK    3  A    between atoms: CBA_3629  and  CGA_3630 
DOCKED: REMARK    4  A    between atoms: C3B_3635  and  CAB_3638 
DOCKED: REMARK    5  A    between atoms: C3C_3642  and  CAC_3645 
DOCKED: REMARK    6  A    between atoms: C3D_3649  and  CAD_3652 
DOCKED: REMARK    7  A    between atoms: CAD_3652  and  CBD_3653 
DOCKED: REMARK    8  A    between atoms: CBD_3653  and  CGD_3654 
DOCKED: USER                              x       y       z     vdW  Elec       q    Type
DOCKED: USER                           _______ _______ _______ _____ _____    ______ ____
DOCKED: ROOT
DOCKED: ATOM      1  CHA HEM A1501      54.171  81.091   9.987 -0.28 +0.04    +0.038 A 
DOCKED: ATOM      2  CHB HEM A1501      54.769  77.018   7.498 -0.37 +0.02    +0.038 A 
DOCKED: ATOM      3  CHC HEM A1501      55.498  74.588  11.602 -0.40 +0.01    +0.038 A 
DOCKED: ATOM      4  CHD HEM A1501      54.965  78.679  14.091 -0.39 +0.02    +0.038 A 
DOCKED: ATOM      5  C1A HEM A1501      54.298  80.195   8.931 -0.26 +0.08    +0.079 A 
DOCKED: ATOM      6  C2A HEM A1501      54.195  80.501   7.501 -0.34 -0.01    -0.006 A 
DOCKED: ATOM      7  C3A HEM A1501      54.361  79.363   6.842 -0.36 -0.01    -0.007 A 
DOCKED: ATOM      8  C4A HEM A1501      54.577  78.346   7.825 -0.31 +0.06    +0.079 A 
DOCKED: ATOM      9  CMA HEM A1501      54.352  79.161   5.357 -0.49 +0.02    +0.032 C 
DOCKED: ATOM     10  C1B HEM A1501      54.992  75.985   8.389 -0.34 +0.04    +0.079 A 
DOCKED: ATOM     11  C2B HEM A1501      55.170  74.593   7.993 -0.46 -0.00    -0.003 A 
DOCKED: ATOM     12  C3B HEM A1501      55.359  73.912   9.153 -0.45 +0.01    +0.015 A 
DOCKED: ATOM     13  C4B HEM A1501      55.321  74.886  10.239 -0.36 +0.03    +0.083 A 
DOCKED: ATOM     14  CMB HEM A1501      55.132  74.091   6.576 -0.56 +0.02    +0.033 C 
DOCKED: ATOM     15  C1C HEM A1501      55.460  75.447  12.667 -0.33 +0.03    +0.079 A 
DOCKED: ATOM     16  C2C HEM A1501      55.733  75.091  14.032 -0.39 -0.00    -0.003 A 
DOCKED: ATOM     17  C3C HEM A1501      55.605  76.234  14.754 -0.40 +0.01    +0.015 A 
DOCKED: ATOM     18  C4C HEM A1501      55.238  77.299  13.801 -0.33 +0.04    +0.083 A 
DOCKED: ATOM     19  CMC HEM A1501      56.087  73.688  14.480 -0.54 +0.01    +0.033 C 
DOCKED: ATOM     20  C1D HEM A1501      54.636  79.725  13.194 -0.31 +0.05    +0.079 A 
DOCKED: ATOM     21  C2D HEM A1501      54.383  81.082  13.571 -0.38 -0.00    -0.007 A 
DOCKED: ATOM     22  C3D HEM A1501      54.158  81.765  12.419 -0.34 -0.01    -0.006 A 
DOCKED: ATOM     23  C4D HEM A1501      54.282  80.818  11.328 -0.21 +0.07    +0.079 A 
DOCKED: ATOM     24  CMD HEM A1501      54.372  81.630  14.942 -0.45 +0.02    +0.032 C 
DOCKED: ATOM     25  NA  HEM A1501      54.565  78.860   9.088 -0.18 -0.19    -0.246 N 
DOCKED: ATOM     26  NB  HEM A1501      55.075  76.121   9.754 -0.09 -0.11    -0.246 N 
DOCKED: ATOM     27  NC  HEM A1501      55.194  76.773  12.575 -0.15 -0.11    -0.246 N 
DOCKED: ATOM     28  ND  HEM A1501      54.575  79.591  11.835 -0.11 -0.18    -0.246 N 
DOCKED: ATOM     29 FE   HEM A1501      54.861  77.844  10.834 -0.07 +0.00    +0.000 Fe
DOCKED: ENDROOT
DOCKED: BRANCH  22  30
DOCKED: ATOM     30  CAD HEM A1501      53.850  83.213  12.361 -0.42 +0.05    +0.039 C 
DOCKED: BRANCH  30  31
DOCKED: ATOM     31  CBD HEM A1501      52.394  83.503  12.724 -0.45 +0.12    +0.102 C 
DOCKED: BRANCH  31  32
DOCKED: ATOM     32  CGD HEM A1501      52.204  84.862  13.372 -0.48 +0.27    +0.186 C 
DOCKED: ATOM     33  O1D HEM A1501      53.282  85.476  13.527 -0.49 -1.12    -0.647 OA
DOCKED: ATOM     34  O2D HEM A1501      51.024  85.342  13.680 -0.84 -0.93    -0.647 OA
DOCKED: ENDBRANCH  31  32
DOCKED: ENDBRANCH  30  31
DOCKED: ENDBRANCH  22  30
DOCKED: BRANCH   6  35
DOCKED: ATOM     35  CAA HEM A1501      53.958  81.826   6.865 -0.43 +0.05    +0.039 C 
DOCKED: BRANCH  35  36
DOCKED: ATOM     36  CBA HEM A1501      52.519  82.275   7.027 -0.55 +0.16    +0.102 C 
DOCKED: BRANCH  36  37
DOCKED: ATOM     37  CGA HEM A1501      52.195  83.574   6.341 -0.62 +0.35    +0.186 C 
DOCKED: ATOM     38  O1A HEM A1501      52.933  84.562   6.561 -1.18 -1.72    -0.647 OA
DOCKED: ATOM     39  O2A HEM A1501      51.232  83.602   5.547 -0.98 -1.29    -0.647 OA
DOCKED: ENDBRANCH  36  37
DOCKED: ENDBRANCH  35  36
DOCKED: ENDBRANCH   6  35
DOCKED: BRANCH  17  40
DOCKED: ATOM     40  CAC HEM A1501      55.777  76.421  16.200 -0.57 +0.00    +0.001 C 
DOCKED: ATOM     41  CBC HEM A1501      55.195  75.709  17.177 -0.66 +0.00    +0.000 C 
DOCKED: ENDBRANCH  17  40
DOCKED: BRANCH  12  42
DOCKED: ATOM     42  CAB HEM A1501      55.581  72.470   9.411 -0.55 +0.00    +0.001 C 
DOCKED: ATOM     43  CBB HEM A1501      55.435  71.428   8.618 -0.56 +0.00    +0.000 C 
DOCKED: ENDBRANCH  12  42
DOCKED: TORSDOF 8
DOCKED: TER
DOCKED: ENDMDL
________________________________________________________________________________


	BEGINNING GENETIC ALGORITHM DOCKING 92 of 100
Run: 92 Seed: 1765809395 2085631817 [ Run 92 of 100 GA/GALS ]
Beginning LAMARCKIAN GENETIC ALGORITHM (LGA), with a maximum of 2500000 energy evaluations.

Final-Value: -23.211


	FINAL GENETIC ALGORITHM DOCKED STATE
	_______________________________________________


Detailed state:  trans 54.950 78.990 10.823 quatxyzw 0.182229 -0.973163 0.140323 0.007409 center 54.495 78.699 10.493 ntor 8 120.7460 -75.7863 -114.9507 29.7679 17.8129 -7.7436 180.0000 118.7119
State:	 54.950  78.990  10.823   0.182 -0.973  0.140 179.151    120.75  -75.79 -114.95   29.77   17.81   -7.74  180.00  118.71

DOCKED: MODEL       92
DOCKED: USER    Run = 92
DOCKED: USER    DPF = C:/Users/georg/Desktop/Dock/executables_autodock_tools/receptor.dpf
DOCKED: USER  
DOCKED: USER    Estimated Free Energy of Binding    =  -20.56 kcal/mol  [=(1)+(2)+(3)-(4)]
DOCKED: USER    Estimated Inhibition Constant, Ki   =  846.92 aM (attomolar)  [Temperature = 298.15 K]
DOCKED: USER    
DOCKED: USER    (1) Final Intermolecular Energy     =  -22.95 kcal/mol
DOCKED: USER        vdW + Hbond + desolv Energy     =  -18.39 kcal/mol
DOCKED: USER        Electrostatic Energy            =   -4.55 kcal/mol
DOCKED: USER    (2) Final Total Internal Energy     =   -0.26 kcal/mol
DOCKED: USER    (3) Torsional Free Energy           =   +2.39 kcal/mol
DOCKED: USER    (4) Unbound System's Energy  [=(2)] =   -0.26 kcal/mol
DOCKED: USER    
DOCKED: USER    
DOCKED: USER    NEWDPF move ligand.pdbqt
DOCKED: USER    NEWDPF about 54.495000 78.699000 10.493000
DOCKED: USER    NEWDPF tran0 54.949757 78.989638 10.823271
DOCKED: USER    NEWDPF quaternion0 0.182229 -0.973163 0.140323 0.007409
DOCKED: USER    NEWDPF axisangle0 0.182234 -0.973190 0.140327 179.150939
DOCKED: USER    NEWDPF quat0 0.182234 -0.973190 0.140327 179.150939
DOCKED: USER    NEWDPF dihe0 120.75 -75.79 -114.95 29.77 17.81 -7.74 180.00 118.71 
DOCKED: USER  keepresnum = 1 
DOCKED: USER  
DOCKED: REMARK  8 active torsions:
DOCKED: REMARK  status: ('A' for Active; 'I' for Inactive)
DOCKED: REMARK    1  A    between atoms: C2A_3624  and  CAA_3628 
DOCKED: REMARK    2  A    between atoms: CAA_3628  and  CBA_3629 
DOCKED: REMARK    3  A    between atoms: CBA_3629  and  CGA_3630 
DOCKED: REMARK    4  A    between atoms: C3B_3635  and  CAB_3638 
DOCKED: REMARK    5  A    between atoms: C3C_3642  and  CAC_3645 
DOCKED: REMARK    6  A    between atoms: C3D_3649  and  CAD_3652 
DOCKED: REMARK    7  A    between atoms: CAD_3652  and  CBD_3653 
DOCKED: REMARK    8  A    between atoms: CBD_3653  and  CGD_3654 
DOCKED: USER                              x       y       z     vdW  Elec       q    Type
DOCKED: USER                           _______ _______ _______ _____ _____    ______ ____
DOCKED: ROOT
DOCKED: ATOM      1  CHA HEM A1501      54.163  81.210  10.573 -0.27 +0.04    +0.038 A 
DOCKED: ATOM      2  CHB HEM A1501      54.558  77.462   7.584 -0.38 +0.03    +0.038 A 
DOCKED: ATOM      3  CHC HEM A1501      55.554  74.564  11.310 -0.40 +0.01    +0.038 A 
DOCKED: ATOM      4  CHD HEM A1501      55.224  78.330  14.297 -0.39 +0.02    +0.038 A 
DOCKED: ATOM      5  C1A HEM A1501      54.209  80.445   9.412 -0.25 +0.08    +0.079 A 
DOCKED: ATOM      6  C2A HEM A1501      54.010  80.919   8.039 -0.36 -0.01    -0.006 A 
DOCKED: ATOM      7  C3A HEM A1501      54.121  79.868   7.240 -0.36 -0.01    -0.007 A 
DOCKED: ATOM      8  C4A HEM A1501      54.398  78.742   8.079 -0.32 +0.06    +0.079 A 
DOCKED: ATOM      9  CMA HEM A1501      54.007  79.843   5.746 -0.46 +0.03    +0.032 C 
DOCKED: ATOM     10  C1B HEM A1501      54.834  76.330   8.328 -0.34 +0.05    +0.079 A 
DOCKED: ATOM     11  C2B HEM A1501      54.975  74.996   7.759 -0.46 -0.00    -0.003 A 
DOCKED: ATOM     12  C3B HEM A1501      55.239  74.182   8.814 -0.45 +0.01    +0.015 A 
DOCKED: ATOM     13  C4B HEM A1501      55.284  75.021  10.008 -0.36 +0.03    +0.083 A 
DOCKED: ATOM     14  CMB HEM A1501      54.835  74.666   6.298 -0.58 +0.02    +0.033 C 
DOCKED: ATOM     15  C1C HEM A1501      55.596  75.290  12.469 -0.34 +0.03    +0.079 A 
DOCKED: ATOM     16  C2C HEM A1501      55.961  74.776  13.760 -0.43 -0.00    -0.003 A 
DOCKED: ATOM     17  C3C HEM A1501      55.892  75.824  14.620 -0.40 +0.01    +0.015 A 
DOCKED: ATOM     18  C4C HEM A1501      55.467  76.995  13.827 -0.32 +0.03    +0.083 A 
DOCKED: ATOM     19  CMC HEM A1501      56.335  73.329  14.013 -0.55 +0.01    +0.033 C 
DOCKED: ATOM     20  C1D HEM A1501      54.841  79.474  13.555 -0.33 +0.04    +0.079 A 
DOCKED: ATOM     21  C2D HEM A1501      54.624  80.777  14.107 -0.40 -0.00    -0.007 A 
DOCKED: ATOM     22  C3D HEM A1501      54.324  81.591  13.063 -0.34 -0.00    -0.006 A 
DOCKED: ATOM     23  C4D HEM A1501      54.365  80.780  11.862 -0.24 +0.07    +0.079 A 
DOCKED: ATOM     24  CMD HEM A1501      54.713  81.158  15.531 -0.44 +0.01    +0.032 C 
DOCKED: ATOM     25  NA  HEM A1501      54.478  79.102   9.391 -0.16 -0.20    -0.246 N 
DOCKED: ATOM     26  NB  HEM A1501      55.013  76.305   9.691 -0.02 -0.12    -0.246 N 
DOCKED: ATOM     27  NC  HEM A1501      55.334  76.618  12.554 -0.16 -0.11    -0.246 N 
DOCKED: ATOM     28  ND  HEM A1501      54.685  79.502  12.197 -0.14 -0.17    -0.246 N 
DOCKED: ATOM     29 FE   HEM A1501      54.888  77.886  10.980 -0.07 +0.00    +0.000 Fe
DOCKED: ENDROOT
DOCKED: BRANCH  22  30
DOCKED: ATOM     30  CAD HEM A1501      54.023  83.036  13.198 -0.41 +0.04    +0.039 C 
DOCKED: BRANCH  30  31
DOCKED: ATOM     31  CBD HEM A1501      52.520  83.301  13.274 -0.52 +0.11    +0.102 C 
DOCKED: BRANCH  31  32
DOCKED: ATOM     32  CGD HEM A1501      52.153  84.733  12.934 -0.45 +0.27    +0.186 C 
DOCKED: ATOM     33  O1D HEM A1501      52.967  85.265  12.148 -0.58 -1.44    -0.647 OA
DOCKED: ATOM     34  O2D HEM A1501      51.068  85.314  13.385 -0.75 -0.95    -0.647 OA
DOCKED: ENDBRANCH  31  32
DOCKED: ENDBRANCH  30  31
DOCKED: ENDBRANCH  22  30
DOCKED: BRANCH   6  35
DOCKED: ATOM     35  CAA HEM A1501      53.738  82.310   7.583 -0.41 +0.06    +0.039 C 
DOCKED: BRANCH  35  36
DOCKED: ATOM     36  CBA HEM A1501      52.765  82.338   6.420 -0.56 +0.15    +0.102 C 
DOCKED: BRANCH  36  37
DOCKED: ATOM     37  CGA HEM A1501      52.234  83.706   6.090 -0.64 +0.35    +0.186 C 
DOCKED: ATOM     38  O1A HEM A1501      51.078  83.796   5.616 -0.99 -1.36    -0.647 OA
DOCKED: ATOM     39  O2A HEM A1501      52.948  84.697   6.346 -1.10 -1.74    -0.647 OA
DOCKED: ENDBRANCH  36  37
DOCKED: ENDBRANCH  35  36
DOCKED: ENDBRANCH   6  35
DOCKED: BRANCH  17  40
DOCKED: ATOM     40  CAC HEM A1501      56.166  75.839  16.062 -0.56 +0.00    +0.001 C 
DOCKED: ATOM     41  CBC HEM A1501      55.309  76.173  17.039 -0.63 +0.00    +0.000 C 
DOCKED: ENDBRANCH  17  40
DOCKED: BRANCH  12  42
DOCKED: ATOM     42  CAB HEM A1501      55.469  72.720   8.884 -0.52 +0.00    +0.001 C 
DOCKED: ATOM     43  CBB HEM A1501      54.652  71.743   9.221 -0.55 +0.00    +0.000 C 
DOCKED: ENDBRANCH  12  42
DOCKED: TORSDOF 8
DOCKED: TER
DOCKED: ENDMDL
________________________________________________________________________________


	BEGINNING GENETIC ALGORITHM DOCKING 93 of 100
Run: 93 Seed: 1309059260 250953233 [ Run 93 of 100 GA/GALS ]
Beginning LAMARCKIAN GENETIC ALGORITHM (LGA), with a maximum of 2500000 energy evaluations.

Final-Value: -23.397


	FINAL GENETIC ALGORITHM DOCKED STATE
	_______________________________________________


Detailed state:  trans 54.923 78.996 10.774 quatxyzw 0.181580 -0.971318 0.153403 0.006088 center 54.495 78.699 10.493 ntor 8 147.4036 -64.5248 -135.8670 -171.2515 22.2648 0.7936 -159.8448 133.1357
State:	 54.923  78.996  10.774   0.182 -0.971  0.153 179.302    147.40  -64.52 -135.87 -171.25   22.26    0.79 -159.84  133.14

DOCKED: MODEL       93
DOCKED: USER    Run = 93
DOCKED: USER    DPF = C:/Users/georg/Desktop/Dock/executables_autodock_tools/receptor.dpf
DOCKED: USER  
DOCKED: USER    Estimated Free Energy of Binding    =  -20.56 kcal/mol  [=(1)+(2)+(3)-(4)]
DOCKED: USER    Estimated Inhibition Constant, Ki   =  846.56 aM (attomolar)  [Temperature = 298.15 K]
DOCKED: USER    
DOCKED: USER    (1) Final Intermolecular Energy     =  -22.95 kcal/mol
DOCKED: USER        vdW + Hbond + desolv Energy     =  -18.64 kcal/mol
DOCKED: USER        Electrostatic Energy            =   -4.31 kcal/mol
DOCKED: USER    (2) Final Total Internal Energy     =   -0.45 kcal/mol
DOCKED: USER    (3) Torsional Free Energy           =   +2.39 kcal/mol
DOCKED: USER    (4) Unbound System's Energy  [=(2)] =   -0.45 kcal/mol
DOCKED: USER    
DOCKED: USER    
DOCKED: USER    NEWDPF move ligand.pdbqt
DOCKED: USER    NEWDPF about 54.495000 78.699000 10.493000
DOCKED: USER    NEWDPF tran0 54.922996 78.996162 10.773894
DOCKED: USER    NEWDPF quaternion0 0.181580 -0.971318 0.153403 0.006088
DOCKED: USER    NEWDPF axisangle0 0.181583 -0.971336 0.153406 179.302366
DOCKED: USER    NEWDPF quat0 0.181583 -0.971336 0.153406 179.302366
DOCKED: USER    NEWDPF dihe0 147.40 -64.52 -135.87 -171.25 22.26 0.79 -159.84 133.14 
DOCKED: USER  keepresnum = 1 
DOCKED: USER  
DOCKED: REMARK  8 active torsions:
DOCKED: REMARK  status: ('A' for Active; 'I' for Inactive)
DOCKED: REMARK    1  A    between atoms: C2A_3624  and  CAA_3628 
DOCKED: REMARK    2  A    between atoms: CAA_3628  and  CBA_3629 
DOCKED: REMARK    3  A    between atoms: CBA_3629  and  CGA_3630 
DOCKED: REMARK    4  A    between atoms: C3B_3635  and  CAB_3638 
DOCKED: REMARK    5  A    between atoms: C3C_3642  and  CAC_3645 
DOCKED: REMARK    6  A    between atoms: C3D_3649  and  CAD_3652 
DOCKED: REMARK    7  A    between atoms: CAD_3652  and  CBD_3653 
DOCKED: REMARK    8  A    between atoms: CBD_3653  and  CGD_3654 
DOCKED: USER                              x       y       z     vdW  Elec       q    Type
DOCKED: USER                           _______ _______ _______ _____ _____    ______ ____
DOCKED: ROOT
DOCKED: ATOM      1  CHA HEM A1501      54.140  81.210  10.463 -0.28 +0.04    +0.038 A 
DOCKED: ATOM      2  CHB HEM A1501      54.537  77.384   7.575 -0.38 +0.03    +0.038 A 
DOCKED: ATOM      3  CHC HEM A1501      55.521  74.584  11.379 -0.40 +0.01    +0.038 A 
DOCKED: ATOM      4  CHD HEM A1501      55.188  78.428  14.264 -0.38 +0.02    +0.038 A 
DOCKED: ATOM      5  C1A HEM A1501      54.188  80.415   9.323 -0.25 +0.08    +0.079 A 
DOCKED: ATOM      6  C2A HEM A1501      53.992  80.853   7.937 -0.36 -0.01    -0.006 A 
DOCKED: ATOM      7  C3A HEM A1501      54.104  79.780   7.167 -0.36 -0.01    -0.007 A 
DOCKED: ATOM      8  C4A HEM A1501      54.377  78.676   8.036 -0.32 +0.06    +0.079 A 
DOCKED: ATOM      9  CMA HEM A1501      53.993  79.716   5.674 -0.46 +0.03    +0.032 C 
DOCKED: ATOM     10  C1B HEM A1501      54.810  76.272   8.350 -0.35 +0.05    +0.079 A 
DOCKED: ATOM     11  C2B HEM A1501      54.951  74.923   7.816 -0.46 -0.00    -0.003 A 
DOCKED: ATOM     12  C3B HEM A1501      55.212  74.137   8.893 -0.45 +0.01    +0.015 A 
DOCKED: ATOM     13  C4B HEM A1501      55.254  75.007  10.065 -0.36 +0.03    +0.083 A 
DOCKED: ATOM     14  CMB HEM A1501      54.814  74.554   6.365 -0.58 +0.02    +0.033 C 
DOCKED: ATOM     15  C1C HEM A1501      55.561  75.341  12.518 -0.34 +0.03    +0.079 A 
DOCKED: ATOM     16  C2C HEM A1501      55.923  74.860  13.824 -0.42 -0.00    -0.003 A 
DOCKED: ATOM     17  C3C HEM A1501      55.853  75.931  14.655 -0.39 +0.01    +0.015 A 
DOCKED: ATOM     18  C4C HEM A1501      55.431  77.081  13.831 -0.32 +0.03    +0.083 A 
DOCKED: ATOM     19  CMC HEM A1501      56.294  73.420  14.115 -0.56 +0.01    +0.033 C 
DOCKED: ATOM     20  C1D HEM A1501      54.808  79.553  13.492 -0.33 +0.04    +0.079 A 
DOCKED: ATOM     21  C2D HEM A1501      54.592  80.870  14.009 -0.40 -0.00    -0.007 A 
DOCKED: ATOM     22  C3D HEM A1501      54.295  81.657  12.943 -0.34 -0.00    -0.006 A 
DOCKED: ATOM     23  C4D HEM A1501      54.338  80.814  11.763 -0.24 +0.07    +0.079 A 
DOCKED: ATOM     24  CMD HEM A1501      54.678  81.289  15.422 -0.46 +0.01    +0.032 C 
DOCKED: ATOM     25  NA  HEM A1501      54.454  79.071   9.338 -0.17 -0.20    -0.246 N 
DOCKED: ATOM     26  NB  HEM A1501      54.986  76.282   9.713 +0.01 -0.12    -0.246 N 
DOCKED: ATOM     27  NC  HEM A1501      55.300  76.670  12.568 -0.16 -0.11    -0.246 N 
DOCKED: ATOM     28  ND  HEM A1501      54.655  79.545  12.133 -0.13 -0.17    -0.246 N 
DOCKED: ATOM     29 FE   HEM A1501      54.860  77.897  10.959 -0.07 +0.00    +0.000 Fe
DOCKED: ENDROOT
DOCKED: BRANCH  22  30
DOCKED: ATOM     30  CAD HEM A1501      53.995  83.105  13.039 -0.41 +0.04    +0.039 C 
DOCKED: BRANCH  30  31
DOCKED: ATOM     31  CBD HEM A1501      52.593  83.362  13.590 -0.49 +0.10    +0.102 C 
DOCKED: BRANCH  31  32
DOCKED: ATOM     32  CGD HEM A1501      52.031  84.708  13.173 -0.48 +0.26    +0.186 C 
DOCKED: ATOM     33  O1D HEM A1501      52.754  85.294  12.338 -0.58 -1.35    -0.647 OA
DOCKED: ATOM     34  O2D HEM A1501      50.884  85.165  13.613 -0.76 -0.89    -0.647 OA
DOCKED: ENDBRANCH  31  32
DOCKED: ENDBRANCH  30  31
DOCKED: ENDBRANCH  22  30
DOCKED: BRANCH   6  35
DOCKED: ATOM     35  CAA HEM A1501      53.723  82.231   7.444 -0.44 +0.06    +0.039 C 
DOCKED: BRANCH  35  36
DOCKED: ATOM     36  CBA HEM A1501      52.512  82.274   6.533 -0.58 +0.15    +0.102 C 
DOCKED: BRANCH  36  37
DOCKED: ATOM     37  CGA HEM A1501      52.140  83.652   6.060 -0.64 +0.35    +0.186 C 
DOCKED: ATOM     38  O1A HEM A1501      52.937  84.592   6.284 -1.17 -1.65    -0.647 OA
DOCKED: ATOM     39  O2A HEM A1501      51.076  83.795   5.424 -1.07 -1.34    -0.647 OA
DOCKED: ENDBRANCH  36  37
DOCKED: ENDBRANCH  35  36
DOCKED: ENDBRANCH   6  35
DOCKED: BRANCH  17  40
DOCKED: ATOM     40  CAC HEM A1501      56.123  75.984  16.097 -0.56 +0.00    +0.001 C 
DOCKED: ATOM     41  CBC HEM A1501      55.228  75.851  17.088 -0.66 +0.00    +0.000 C 
DOCKED: ENDBRANCH  17  40
DOCKED: BRANCH  12  42
DOCKED: ATOM     42  CAB HEM A1501      55.439  72.677   9.002 -0.53 +0.00    +0.001 C 
DOCKED: ATOM     43  CBB HEM A1501      54.583  71.689   9.170 -0.53 +0.00    +0.000 C 
DOCKED: ENDBRANCH  12  42
DOCKED: TORSDOF 8
DOCKED: TER
DOCKED: ENDMDL
________________________________________________________________________________


	BEGINNING GENETIC ALGORITHM DOCKING 94 of 100
Run: 94 Seed: 1041157131 1829976188 [ Run 94 of 100 GA/GALS ]
Beginning LAMARCKIAN GENETIC ALGORITHM (LGA), with a maximum of 2500000 energy evaluations.

Final-Value: -23.483


	FINAL GENETIC ALGORITHM DOCKED STATE
	_______________________________________________


Detailed state:  trans 54.933 78.897 10.691 quatxyzw -0.173322 0.970583 -0.166179 -0.017679 center 54.495 78.699 10.493 ntor 8 145.8468 15.0079 -126.3317 -11.7452 15.4855 0.1815 -158.0587 152.6259
State:	 54.933  78.897  10.691  -0.173  0.971 -0.166 -177.974    145.85   15.01 -126.33  -11.75   15.49    0.18 -158.06  152.63

DOCKED: MODEL       94
DOCKED: USER    Run = 94
DOCKED: USER    DPF = C:/Users/georg/Desktop/Dock/executables_autodock_tools/receptor.dpf
DOCKED: USER  
DOCKED: USER    Estimated Free Energy of Binding    =  -20.63 kcal/mol  [=(1)+(2)+(3)-(4)]
DOCKED: USER    Estimated Inhibition Constant, Ki   =  759.84 aM (attomolar)  [Temperature = 298.15 K]
DOCKED: USER    
DOCKED: USER    (1) Final Intermolecular Energy     =  -23.01 kcal/mol
DOCKED: USER        vdW + Hbond + desolv Energy     =  -18.56 kcal/mol
DOCKED: USER        Electrostatic Energy            =   -4.45 kcal/mol
DOCKED: USER    (2) Final Total Internal Energy     =   -0.47 kcal/mol
DOCKED: USER    (3) Torsional Free Energy           =   +2.39 kcal/mol
DOCKED: USER    (4) Unbound System's Energy  [=(2)] =   -0.47 kcal/mol
DOCKED: USER    
DOCKED: USER    
DOCKED: USER    NEWDPF move ligand.pdbqt
DOCKED: USER    NEWDPF about 54.495000 78.699000 10.493000
DOCKED: USER    NEWDPF tran0 54.932529 78.896679 10.690629
DOCKED: USER    NEWDPF quaternion0 -0.173322 0.970583 -0.166179 -0.017679
DOCKED: USER    NEWDPF axisangle0 -0.173349 0.970735 -0.166205 -177.974062
DOCKED: USER    NEWDPF quat0 -0.173349 0.970735 -0.166205 -177.974062
DOCKED: USER    NEWDPF dihe0 145.85 15.01 -126.33 -11.75 15.49 0.18 -158.06 152.63 
DOCKED: USER  keepresnum = 1 
DOCKED: USER  
DOCKED: REMARK  8 active torsions:
DOCKED: REMARK  status: ('A' for Active; 'I' for Inactive)
DOCKED: REMARK    1  A    between atoms: C2A_3624  and  CAA_3628 
DOCKED: REMARK    2  A    between atoms: CAA_3628  and  CBA_3629 
DOCKED: REMARK    3  A    between atoms: CBA_3629  and  CGA_3630 
DOCKED: REMARK    4  A    between atoms: C3B_3635  and  CAB_3638 
DOCKED: REMARK    5  A    between atoms: C3C_3642  and  CAC_3645 
DOCKED: REMARK    6  A    between atoms: C3D_3649  and  CAD_3652 
DOCKED: REMARK    7  A    between atoms: CAD_3652  and  CBD_3653 
DOCKED: REMARK    8  A    between atoms: CBD_3653  and  CGD_3654 
DOCKED: USER                              x       y       z     vdW  Elec       q    Type
DOCKED: USER                           _______ _______ _______ _____ _____    ______ ____
DOCKED: ROOT
DOCKED: ATOM      1  CHA HEM A1501      54.187  81.113  10.312 -0.27 +0.04    +0.038 A 
DOCKED: ATOM      2  CHB HEM A1501      54.621  77.223   7.515 -0.38 +0.03    +0.038 A 
DOCKED: ATOM      3  CHC HEM A1501      55.456  74.491  11.404 -0.40 +0.01    +0.038 A 
DOCKED: ATOM      4  CHD HEM A1501      55.087  78.398  14.198 -0.39 +0.02    +0.038 A 
DOCKED: ATOM      5  C1A HEM A1501      54.258  80.294   9.190 -0.26 +0.08    +0.079 A 
DOCKED: ATOM      6  C2A HEM A1501      54.109  80.704   7.790 -0.35 -0.01    -0.006 A 
DOCKED: ATOM      7  C3A HEM A1501      54.230  79.615   7.045 -0.36 -0.01    -0.007 A 
DOCKED: ATOM      8  C4A HEM A1501      54.464  78.526   7.944 -0.32 +0.06    +0.079 A 
DOCKED: ATOM      9  CMA HEM A1501      54.163  79.521   5.551 -0.48 +0.03    +0.032 C 
DOCKED: ATOM     10  C1B HEM A1501      54.857  76.124   8.321 -0.35 +0.04    +0.079 A 
DOCKED: ATOM     11  C2B HEM A1501      54.996  74.762   7.819 -0.46 -0.00    -0.003 A 
DOCKED: ATOM     12  C3B HEM A1501      55.215  73.996   8.920 -0.45 +0.01    +0.015 A 
DOCKED: ATOM     13  C4B HEM A1501      55.234  74.890  10.074 -0.36 +0.03    +0.083 A 
DOCKED: ATOM     14  CMB HEM A1501      54.897  74.365   6.372 -0.58 +0.02    +0.033 C 
DOCKED: ATOM     15  C1C HEM A1501      55.472  75.271  12.528 -0.34 +0.03    +0.079 A 
DOCKED: ATOM     16  C2C HEM A1501      55.789  74.813  13.853 -0.41 -0.00    -0.003 A 
DOCKED: ATOM     17  C3C HEM A1501      55.708  75.903  14.660 -0.39 +0.01    +0.015 A 
DOCKED: ATOM     18  C4C HEM A1501      55.326  77.040  13.800 -0.32 +0.03    +0.083 A 
DOCKED: ATOM     19  CMC HEM A1501      56.134  73.376  14.185 -0.56 +0.01    +0.033 C 
DOCKED: ATOM     20  C1D HEM A1501      54.745  79.511  13.392 -0.32 +0.05    +0.079 A 
DOCKED: ATOM     21  C2D HEM A1501      54.529  80.841  13.875 -0.40 -0.00    -0.007 A 
DOCKED: ATOM     22  C3D HEM A1501      54.275  81.609  12.785 -0.34 -0.00    -0.006 A 
DOCKED: ATOM     23  C4D HEM A1501      54.342  80.742  11.624 -0.22 +0.07    +0.079 A 
DOCKED: ATOM     24  CMD HEM A1501      54.579  81.289  15.282 -0.47 +0.01    +0.032 C 
DOCKED: ATOM     25  NA  HEM A1501      54.508  78.947   9.241 -0.17 -0.20    -0.246 N 
DOCKED: ATOM     26  NB  HEM A1501      54.993  76.160   9.688 -0.05 -0.12    -0.246 N 
DOCKED: ATOM     27  NC  HEM A1501      55.227  76.605  12.543 -0.15 -0.11    -0.246 N 
DOCKED: ATOM     28  ND  HEM A1501      54.632  79.477  12.030 -0.12 -0.17    -0.246 N 
DOCKED: ATOM     29 FE   HEM A1501      54.850  77.803  10.897 -0.07 +0.00    +0.000 Fe
DOCKED: ENDROOT
DOCKED: BRANCH  22  30
DOCKED: ATOM     30  CAD HEM A1501      53.990  83.063  12.842 -0.41 +0.04    +0.039 C 
DOCKED: BRANCH  30  31
DOCKED: ATOM     31  CBD HEM A1501      52.592  83.350  13.387 -0.52 +0.11    +0.102 C 
DOCKED: BRANCH  31  32
DOCKED: ATOM     32  CGD HEM A1501      52.110  84.754  13.071 -0.47 +0.27    +0.186 C 
DOCKED: ATOM     33  O1D HEM A1501      52.772  85.296  12.159 -0.55 -1.39    -0.647 OA
DOCKED: ATOM     34  O2D HEM A1501      51.078  85.300  13.666 -0.81 -0.93    -0.647 OA
DOCKED: ENDBRANCH  31  32
DOCKED: ENDBRANCH  30  31
DOCKED: ENDBRANCH  22  30
DOCKED: BRANCH   6  35
DOCKED: ATOM     35  CAA HEM A1501      53.872  82.075   7.261 -0.44 +0.06    +0.039 C 
DOCKED: BRANCH  35  36
DOCKED: ATOM     36  CBA HEM A1501      52.465  82.231   6.717 -0.57 +0.15    +0.102 C 
DOCKED: BRANCH  36  37
DOCKED: ATOM     37  CGA HEM A1501      52.132  83.621   6.249 -0.63 +0.35    +0.186 C 
DOCKED: ATOM     38  O1A HEM A1501      51.072  83.793   5.605 -0.99 -1.36    -0.647 OA
DOCKED: ATOM     39  O2A HEM A1501      52.902  84.552   6.561 -1.18 -1.71    -0.647 OA
DOCKED: ENDBRANCH  36  37
DOCKED: ENDBRANCH  35  36
DOCKED: ENDBRANCH   6  35
DOCKED: BRANCH  17  40
DOCKED: ATOM     40  CAC HEM A1501      55.936  75.982  16.108 -0.57 +0.00    +0.001 C 
DOCKED: ATOM     41  CBC HEM A1501      55.007  75.910  17.073 -0.64 +0.00    +0.000 C 
DOCKED: ENDBRANCH  17  40
DOCKED: BRANCH  12  42
DOCKED: ATOM     42  CAB HEM A1501      55.421  72.536   9.065 -0.54 +0.00    +0.001 C 
DOCKED: ATOM     43  CBB HEM A1501      55.296  71.564   8.185 -0.53 +0.00    +0.000 C 
DOCKED: ENDBRANCH  12  42
DOCKED: TORSDOF 8
DOCKED: TER
DOCKED: ENDMDL
________________________________________________________________________________


	BEGINNING GENETIC ALGORITHM DOCKING 95 of 100
Run: 95 Seed: 601177244 1139285888 [ Run 95 of 100 GA/GALS ]
Beginning LAMARCKIAN GENETIC ALGORITHM (LGA), with a maximum of 2500000 energy evaluations.

Final-Value: -23.507


	FINAL GENETIC ALGORITHM DOCKED STATE
	_______________________________________________


Detailed state:  trans 55.000 78.926 10.631 quatxyzw 0.176644 -0.971986 0.154856 0.007786 center 54.495 78.699 10.493 ntor 8 142.9508 -96.0202 -130.0703 -180.0000 17.8840 -6.1479 -162.8253 137.8831
State:	 55.000  78.926  10.631   0.177 -0.972  0.155 179.108    142.95  -96.02 -130.07 -180.00   17.88   -6.15 -162.83  137.88

DOCKED: MODEL       95
DOCKED: USER    Run = 95
DOCKED: USER    DPF = C:/Users/georg/Desktop/Dock/executables_autodock_tools/receptor.dpf
DOCKED: USER  
DOCKED: USER    Estimated Free Energy of Binding    =  -20.65 kcal/mol  [=(1)+(2)+(3)-(4)]
DOCKED: USER    Estimated Inhibition Constant, Ki   =  735.61 aM (attomolar)  [Temperature = 298.15 K]
DOCKED: USER    
DOCKED: USER    (1) Final Intermolecular Energy     =  -23.03 kcal/mol
DOCKED: USER        vdW + Hbond + desolv Energy     =  -18.57 kcal/mol
DOCKED: USER        Electrostatic Energy            =   -4.47 kcal/mol
DOCKED: USER    (2) Final Total Internal Energy     =   -0.47 kcal/mol
DOCKED: USER    (3) Torsional Free Energy           =   +2.39 kcal/mol
DOCKED: USER    (4) Unbound System's Energy  [=(2)] =   -0.47 kcal/mol
DOCKED: USER    
DOCKED: USER    
DOCKED: USER    NEWDPF move ligand.pdbqt
DOCKED: USER    NEWDPF about 54.495000 78.699000 10.493000
DOCKED: USER    NEWDPF tran0 54.999802 78.925530 10.630784
DOCKED: USER    NEWDPF quaternion0 0.176644 -0.971986 0.154856 0.007786
DOCKED: USER    NEWDPF axisangle0 0.176649 -0.972015 0.154861 179.107789
DOCKED: USER    NEWDPF quat0 0.176649 -0.972015 0.154861 179.107789
DOCKED: USER    NEWDPF dihe0 142.95 -96.02 -130.07 -180.00 17.88 -6.15 -162.83 137.88 
DOCKED: USER  keepresnum = 1 
DOCKED: USER  
DOCKED: REMARK  8 active torsions:
DOCKED: REMARK  status: ('A' for Active; 'I' for Inactive)
DOCKED: REMARK    1  A    between atoms: C2A_3624  and  CAA_3628 
DOCKED: REMARK    2  A    between atoms: CAA_3628  and  CBA_3629 
DOCKED: REMARK    3  A    between atoms: CBA_3629  and  CGA_3630 
DOCKED: REMARK    4  A    between atoms: C3B_3635  and  CAB_3638 
DOCKED: REMARK    5  A    between atoms: C3C_3642  and  CAC_3645 
DOCKED: REMARK    6  A    between atoms: C3D_3649  and  CAD_3652 
DOCKED: REMARK    7  A    between atoms: CAD_3652  and  CBD_3653 
DOCKED: REMARK    8  A    between atoms: CBD_3653  and  CGD_3654 
DOCKED: USER                              x       y       z     vdW  Elec       q    Type
DOCKED: USER                           _______ _______ _______ _____ _____    ______ ____
DOCKED: ROOT
DOCKED: ATOM      1  CHA HEM A1501      54.239  81.146  10.312 -0.27 +0.04    +0.038 A 
DOCKED: ATOM      2  CHB HEM A1501      54.616  77.311   7.433 -0.38 +0.03    +0.038 A 
DOCKED: ATOM      3  CHC HEM A1501      55.553  74.509  11.247 -0.40 +0.01    +0.038 A 
DOCKED: ATOM      4  CHD HEM A1501      55.241  78.362  14.124 -0.38 +0.02    +0.038 A 
DOCKED: ATOM      5  C1A HEM A1501      54.285  80.348   9.173 -0.26 +0.08    +0.079 A 
DOCKED: ATOM      6  C2A HEM A1501      54.101  80.785   7.786 -0.35 -0.01    -0.006 A 
DOCKED: ATOM      7  C3A HEM A1501      54.207  79.710   7.018 -0.36 -0.01    -0.007 A 
DOCKED: ATOM      8  C4A HEM A1501      54.466  78.605   7.890 -0.32 +0.06    +0.079 A 
DOCKED: ATOM      9  CMA HEM A1501      54.104  79.644   5.524 -0.48 +0.03    +0.032 C 
DOCKED: ATOM     10  C1B HEM A1501      54.874  76.198   8.211 -0.35 +0.05    +0.079 A 
DOCKED: ATOM     11  C2B HEM A1501      55.005  74.846   7.681 -0.47 -0.00    -0.003 A 
DOCKED: ATOM     12  C3B HEM A1501      55.253  74.060   8.761 -0.45 +0.01    +0.015 A 
DOCKED: ATOM     13  C4B HEM A1501      55.298  74.932   9.931 -0.36 +0.03    +0.083 A 
DOCKED: ATOM     14  CMB HEM A1501      54.872  74.476   6.230 -0.58 +0.02    +0.033 C 
DOCKED: ATOM     15  C1C HEM A1501      55.594  75.268  12.386 -0.34 +0.03    +0.079 A 
DOCKED: ATOM     16  C2C HEM A1501      55.944  74.786  13.694 -0.43 -0.00    -0.003 A 
DOCKED: ATOM     17  C3C HEM A1501      55.880  75.860  14.523 -0.39 +0.01    +0.015 A 
DOCKED: ATOM     18  C4C HEM A1501      55.474  77.011  13.694 -0.31 +0.04    +0.083 A 
DOCKED: ATOM     19  CMC HEM A1501      56.301  73.344  13.990 -0.55 +0.01    +0.033 C 
DOCKED: ATOM     20  C1D HEM A1501      54.876  79.488  13.347 -0.31 +0.05    +0.079 A 
DOCKED: ATOM     21  C2D HEM A1501      54.669  80.809  13.860 -0.38 -0.00    -0.007 A 
DOCKED: ATOM     22  C3D HEM A1501      54.385  81.596  12.791 -0.33 -0.00    -0.006 A 
DOCKED: ATOM     23  C4D HEM A1501      54.427  80.751  11.613 -0.23 +0.07    +0.079 A 
DOCKED: ATOM     24  CMD HEM A1501      54.751  81.229  15.273 -0.47 +0.01    +0.032 C 
DOCKED: ATOM     25  NA  HEM A1501      54.540  79.002   9.193 -0.18 -0.20    -0.246 N 
DOCKED: ATOM     26  NB  HEM A1501      55.043  76.209   9.575 -0.12 -0.12    -0.246 N 
DOCKED: ATOM     27  NC  HEM A1501      55.346  76.600  12.431 -0.15 -0.11    -0.246 N 
DOCKED: ATOM     28  ND  HEM A1501      54.730  79.480  11.988 -0.13 -0.17    -0.246 N 
DOCKED: ATOM     29 FE   HEM A1501      54.925  77.828  10.818 -0.07 +0.00    +0.000 Fe
DOCKED: ENDROOT
DOCKED: BRANCH  22  30
DOCKED: ATOM     30  CAD HEM A1501      54.098  83.047  12.883 -0.40 +0.04    +0.039 C 
DOCKED: BRANCH  30  31
DOCKED: ATOM     31  CBD HEM A1501      52.671  83.318  13.356 -0.51 +0.11    +0.102 C 
DOCKED: BRANCH  31  32
DOCKED: ATOM     32  CGD HEM A1501      52.187  84.714  13.012 -0.47 +0.27    +0.186 C 
DOCKED: ATOM     33  O1D HEM A1501      52.930  85.291  12.187 -0.59 -1.43    -0.647 OA
DOCKED: ATOM     34  O2D HEM A1501      51.082  85.222  13.498 -0.71 -0.92    -0.647 OA
DOCKED: ENDBRANCH  31  32
DOCKED: ENDBRANCH  30  31
DOCKED: ENDBRANCH  22  30
DOCKED: BRANCH   6  35
DOCKED: ATOM     35  CAA HEM A1501      53.847  82.165   7.288 -0.44 +0.06    +0.039 C 
DOCKED: BRANCH  35  36
DOCKED: ATOM     36  CBA HEM A1501      52.576  82.239   6.465 -0.57 +0.15    +0.102 C 
DOCKED: BRANCH  36  37
DOCKED: ATOM     37  CGA HEM A1501      52.133  83.638   6.134 -0.64 +0.35    +0.186 C 
DOCKED: ATOM     38  O1A HEM A1501      52.837  84.594   6.532 -1.14 -1.71    -0.647 OA
DOCKED: ATOM     39  O2A HEM A1501      51.108  83.786   5.438 -1.06 -1.33    -0.647 OA
DOCKED: ENDBRANCH  36  37
DOCKED: ENDBRANCH  35  36
DOCKED: ENDBRANCH   6  35
DOCKED: BRANCH  17  40
DOCKED: ATOM     40  CAC HEM A1501      56.143  75.913  15.966 -0.55 +0.00    +0.001 C 
DOCKED: ATOM     41  CBC HEM A1501      55.233  75.873  16.951 -0.64 +0.00    +0.000 C 
DOCKED: ENDBRANCH  17  40
DOCKED: BRANCH  12  42
DOCKED: ATOM     42  CAB HEM A1501      55.466  72.599   8.874 -0.53 +0.00    +0.001 C 
DOCKED: ATOM     43  CBB HEM A1501      54.792  71.686   9.545 -0.54 +0.00    +0.000 C 
DOCKED: ENDBRANCH  12  42
DOCKED: TORSDOF 8
DOCKED: TER
DOCKED: ENDMDL
________________________________________________________________________________


	BEGINNING GENETIC ALGORITHM DOCKING 96 of 100
Run: 96 Seed: 1933647127 1693739735 [ Run 96 of 100 GA/GALS ]
Beginning LAMARCKIAN GENETIC ALGORITHM (LGA), with a maximum of 2500000 energy evaluations.

Final-Value: -22.277


	FINAL GENETIC ALGORITHM DOCKED STATE
	_______________________________________________


Detailed state:  trans 54.334 78.677 10.052 quatxyzw -0.025232 -0.039206 0.035983 -0.998264 center 54.495 78.699 10.493 ntor 8 -11.0522 -17.5943 1.3932 -169.5827 -16.6073 37.6582 16.6369 157.7463
State:	 54.334  78.677  10.052  -0.428 -0.666  0.611 -6.753    -11.05  -17.59    1.39 -169.58  -16.61   37.66   16.64  157.75

DOCKED: MODEL       96
DOCKED: USER    Run = 96
DOCKED: USER    DPF = C:/Users/georg/Desktop/Dock/executables_autodock_tools/receptor.dpf
DOCKED: USER  
DOCKED: USER    Estimated Free Energy of Binding    =  -19.27 kcal/mol  [=(1)+(2)+(3)-(4)]
DOCKED: USER    Estimated Inhibition Constant, Ki   =    7.52 fM (femtomolar)  [Temperature = 298.15 K]
DOCKED: USER    
DOCKED: USER    (1) Final Intermolecular Energy     =  -21.65 kcal/mol
DOCKED: USER        vdW + Hbond + desolv Energy     =  -17.50 kcal/mol
DOCKED: USER        Electrostatic Energy            =   -4.15 kcal/mol
DOCKED: USER    (2) Final Total Internal Energy     =   -0.62 kcal/mol
DOCKED: USER    (3) Torsional Free Energy           =   +2.39 kcal/mol
DOCKED: USER    (4) Unbound System's Energy  [=(2)] =   -0.62 kcal/mol
DOCKED: USER    
DOCKED: USER    
DOCKED: USER    NEWDPF move ligand.pdbqt
DOCKED: USER    NEWDPF about 54.495000 78.699000 10.493000
DOCKED: USER    NEWDPF tran0 54.334305 78.676926 10.052325
DOCKED: USER    NEWDPF quaternion0 -0.025232 -0.039206 0.035983 -0.998264
DOCKED: USER    NEWDPF axisangle0 -0.428435 -0.665694 0.610979 -6.752686
DOCKED: USER    NEWDPF quat0 -0.428435 -0.665694 0.610979 -6.752686
DOCKED: USER    NEWDPF dihe0 -11.05 -17.59 1.39 -169.58 -16.61 37.66 16.64 157.75 
DOCKED: USER  keepresnum = 1 
DOCKED: USER  
DOCKED: REMARK  8 active torsions:
DOCKED: REMARK  status: ('A' for Active; 'I' for Inactive)
DOCKED: REMARK    1  A    between atoms: C2A_3624  and  CAA_3628 
DOCKED: REMARK    2  A    between atoms: CAA_3628  and  CBA_3629 
DOCKED: REMARK    3  A    between atoms: CBA_3629  and  CGA_3630 
DOCKED: REMARK    4  A    between atoms: C3B_3635  and  CAB_3638 
DOCKED: REMARK    5  A    between atoms: C3C_3642  and  CAC_3645 
DOCKED: REMARK    6  A    between atoms: C3D_3649  and  CAD_3652 
DOCKED: REMARK    7  A    between atoms: CAD_3652  and  CBD_3653 
DOCKED: REMARK    8  A    between atoms: CBD_3653  and  CGD_3654 
DOCKED: USER                              x       y       z     vdW  Elec       q    Type
DOCKED: USER                           _______ _______ _______ _____ _____    ______ ____
DOCKED: ROOT
DOCKED: ATOM      1  CHA HEM A1501      54.138  80.975   9.513 -0.30 +0.04    +0.038 A 
DOCKED: ATOM      2  CHB HEM A1501      54.865  78.569  13.614 -0.37 +0.02    +0.038 A 
DOCKED: ATOM      3  CHC HEM A1501      55.601  74.501  11.126 -0.40 +0.01    +0.038 A 
DOCKED: ATOM      4  CHD HEM A1501      54.807  76.897   7.022 -0.40 +0.02    +0.038 A 
DOCKED: ATOM      5  C1A HEM A1501      54.244  80.674  10.867 -0.18 +0.07    +0.079 A 
DOCKED: ATOM      6  C2A HEM A1501      54.056  81.597  11.991 -0.34 -0.01    -0.006 A 
DOCKED: ATOM      7  C3A HEM A1501      54.265  80.909  13.104 -0.37 -0.01    -0.007 A 
DOCKED: ATOM      8  C4A HEM A1501      54.570  79.568  12.707 -0.23 +0.05    +0.079 A 
DOCKED: ATOM      9  CMA HEM A1501      54.180  81.410  14.513 -0.44 +0.02    +0.032 C 
DOCKED: ATOM     10  C1B HEM A1501      55.160  77.253  13.308 -0.29 +0.04    +0.079 A 
DOCKED: ATOM     11  C2B HEM A1501      55.485  76.239  14.304 -0.37 -0.00    -0.003 A 
DOCKED: ATOM     12  C3B HEM A1501      55.706  75.101  13.597 -0.39 +0.01    +0.015 A 
DOCKED: ATOM     13  C4B HEM A1501      55.492  75.417  12.187 -0.32 +0.03    +0.083 A 
DOCKED: ATOM     14  CMB HEM A1501      55.549  76.480  15.787 -0.52 +0.01    +0.033 C 
DOCKED: ATOM     15  C1C HEM A1501      55.429  74.734   9.788 -0.37 +0.03    +0.079 A 
DOCKED: ATOM     16  C2C HEM A1501      55.472  73.733   8.758 -0.44 -0.00    -0.003 A 
DOCKED: ATOM     17  C3C HEM A1501      55.234  74.382   7.589 -0.46 +0.01    +0.015 A 
DOCKED: ATOM     18  C4C HEM A1501      55.052  75.808   7.925 -0.36 +0.05    +0.083 A 
DOCKED: ATOM     19  CMC HEM A1501      55.737  72.265   9.023 -0.44 +0.01    +0.033 C 
DOCKED: ATOM     20  C1D HEM A1501      54.604  78.267   7.320 -0.32 +0.06    +0.079 A 
DOCKED: ATOM     21  C2D HEM A1501      54.359  79.291   6.350 -0.38 -0.01    -0.007 A 
DOCKED: ATOM     22  C3D HEM A1501      54.171  80.441   7.046 -0.35 -0.01    -0.006 A 
DOCKED: ATOM     23  C4D HEM A1501      54.295  80.116   8.454 -0.28 +0.08    +0.079 A 
DOCKED: ATOM     24  CMD HEM A1501      54.316  79.126   4.883 -0.52 +0.02    +0.032 C 
DOCKED: ATOM     25  NA  HEM A1501      54.529  79.425  11.352 -0.05 -0.19    -0.246 N 
DOCKED: ATOM     26  NB  HEM A1501      55.188  76.724  12.040 +0.00 -0.11    -0.246 N 
DOCKED: ATOM     27  NC  HEM A1501      55.153  75.947   9.248 -0.22 -0.12    -0.246 N 
DOCKED: ATOM     28  ND  HEM A1501      54.555  78.788   8.582 -0.20 -0.20    -0.246 N 
DOCKED: ATOM     29 FE   HEM A1501      54.848  77.713  10.284 -0.07 +0.00    +0.000 Fe
DOCKED: ENDROOT
DOCKED: BRANCH  22  30
DOCKED: ATOM     30  CAD HEM A1501      53.891  81.755   6.419 -0.45 +0.05    +0.039 C 
DOCKED: BRANCH  30  31
DOCKED: ATOM     31  CBD HEM A1501      52.408  82.116   6.486 -0.57 +0.15    +0.102 C 
DOCKED: BRANCH  31  32
DOCKED: ATOM     32  CGD HEM A1501      52.139  83.577   6.180 -0.63 +0.35    +0.186 C 
DOCKED: ATOM     33  O1D HEM A1501      51.067  83.750   5.561 -1.00 -1.35    -0.647 OA
DOCKED: ATOM     34  O2D HEM A1501      52.933  84.542   6.576 -1.17 -1.72    -0.647 OA
DOCKED: ENDBRANCH  31  32
DOCKED: ENDBRANCH  30  31
DOCKED: ENDBRANCH  22  30
DOCKED: BRANCH   6  35
DOCKED: ATOM     35  CAA HEM A1501      53.693  83.039  11.937 -0.39 +0.05    +0.039 C 
DOCKED: BRANCH  35  36
DOCKED: ATOM     36  CBA HEM A1501      54.891  83.930  12.202 -0.23 +0.15    +0.102 C 
DOCKED: BRANCH  36  37
DOCKED: ATOM     37  CGA HEM A1501      54.566  85.205  12.930 -0.18 +0.31    +0.186 C 
DOCKED: ATOM     38  O1A HEM A1501      53.428  85.325  13.441 -0.55 -1.08    -0.647 OA
DOCKED: ATOM     39  O2A HEM A1501      55.458  86.071  13.036 -0.52 -1.02    -0.647 OA
DOCKED: ENDBRANCH  36  37
DOCKED: ENDBRANCH  35  36
DOCKED: ENDBRANCH   6  35
DOCKED: BRANCH  17  40
DOCKED: ATOM     40  CAC HEM A1501      55.170  73.822   6.234 -0.60 +0.00    +0.001 C 
DOCKED: ATOM     41  CBC HEM A1501      54.071  73.659   5.482 -0.66 +0.00    +0.000 C 
DOCKED: ENDBRANCH  17  40
DOCKED: BRANCH  12  42
DOCKED: ATOM     42  CAB HEM A1501      56.085  73.738  14.037 -0.55 +0.00    +0.001 C 
DOCKED: ATOM     43  CBB HEM A1501      56.951  73.345  14.950 -0.62 +0.00    +0.000 C 
DOCKED: ENDBRANCH  12  42
DOCKED: TORSDOF 8
DOCKED: TER
DOCKED: ENDMDL
________________________________________________________________________________


	BEGINNING GENETIC ALGORITHM DOCKING 97 of 100
Run: 97 Seed: 1126935465 1479591213 [ Run 97 of 100 GA/GALS ]
Beginning LAMARCKIAN GENETIC ALGORITHM (LGA), with a maximum of 2500000 energy evaluations.

Final-Value: -23.132


	FINAL GENETIC ALGORITHM DOCKED STATE
	_______________________________________________


Detailed state:  trans 54.883 78.885 10.377 quatxyzw -0.176000 0.963657 -0.200741 -0.009625 center 54.495 78.699 10.493 ntor 8 174.7207 179.4797 -140.9086 127.0525 -33.1788 4.4391 -164.8725 -176.0035
State:	 54.883  78.885  10.377  -0.176  0.964 -0.201 -178.897    174.72  179.48 -140.91  127.05  -33.18    4.44 -164.87 -176.00

DOCKED: MODEL       97
DOCKED: USER    Run = 97
DOCKED: USER    DPF = C:/Users/georg/Desktop/Dock/executables_autodock_tools/receptor.dpf
DOCKED: USER  
DOCKED: USER    Estimated Free Energy of Binding    =  -20.20 kcal/mol  [=(1)+(2)+(3)-(4)]
DOCKED: USER    Estimated Inhibition Constant, Ki   =    1.57 fM (femtomolar)  [Temperature = 298.15 K]
DOCKED: USER    
DOCKED: USER    (1) Final Intermolecular Energy     =  -22.58 kcal/mol
DOCKED: USER        vdW + Hbond + desolv Energy     =  -18.44 kcal/mol
DOCKED: USER        Electrostatic Energy            =   -4.14 kcal/mol
DOCKED: USER    (2) Final Total Internal Energy     =   -0.55 kcal/mol
DOCKED: USER    (3) Torsional Free Energy           =   +2.39 kcal/mol
DOCKED: USER    (4) Unbound System's Energy  [=(2)] =   -0.55 kcal/mol
DOCKED: USER    
DOCKED: USER    
DOCKED: USER    NEWDPF move ligand.pdbqt
DOCKED: USER    NEWDPF about 54.495000 78.699000 10.493000
DOCKED: USER    NEWDPF tran0 54.882853 78.885417 10.376671
DOCKED: USER    NEWDPF quaternion0 -0.176000 0.963657 -0.200741 -0.009625
DOCKED: USER    NEWDPF axisangle0 -0.176009 0.963701 -0.200750 -178.897085
DOCKED: USER    NEWDPF quat0 -0.176009 0.963701 -0.200750 -178.897085
DOCKED: USER    NEWDPF dihe0 174.72 179.48 -140.91 127.05 -33.18 4.44 -164.87 -176.00 
DOCKED: USER  keepresnum = 1 
DOCKED: USER  
DOCKED: REMARK  8 active torsions:
DOCKED: REMARK  status: ('A' for Active; 'I' for Inactive)
DOCKED: REMARK    1  A    between atoms: C2A_3624  and  CAA_3628 
DOCKED: REMARK    2  A    between atoms: CAA_3628  and  CBA_3629 
DOCKED: REMARK    3  A    between atoms: CBA_3629  and  CGA_3630 
DOCKED: REMARK    4  A    between atoms: C3B_3635  and  CAB_3638 
DOCKED: REMARK    5  A    between atoms: C3C_3642  and  CAC_3645 
DOCKED: REMARK    6  A    between atoms: C3D_3649  and  CAD_3652 
DOCKED: REMARK    7  A    between atoms: CAD_3652  and  CBD_3653 
DOCKED: REMARK    8  A    between atoms: CBD_3653  and  CGD_3654 
DOCKED: USER                              x       y       z     vdW  Elec       q    Type
DOCKED: USER                           _______ _______ _______ _____ _____    ______ ____
DOCKED: ROOT
DOCKED: ATOM      1  CHA HEM A1501      54.127  81.066   9.842 -0.29 +0.04    +0.038 A 
DOCKED: ATOM      2  CHB HEM A1501      54.564  76.985   7.332 -0.40 +0.03    +0.038 A 
DOCKED: ATOM      3  CHC HEM A1501      55.426  74.545  11.404 -0.40 +0.01    +0.038 A 
DOCKED: ATOM      4  CHD HEM A1501      55.054  78.642  13.911 -0.37 +0.02    +0.038 A 
DOCKED: ATOM      5  C1A HEM A1501      54.197  80.168   8.782 -0.28 +0.08    +0.079 A 
DOCKED: ATOM      6  C2A HEM A1501      54.040  80.476   7.357 -0.36 -0.01    -0.006 A 
DOCKED: ATOM      7  C3A HEM A1501      54.162  79.336   6.692 -0.38 -0.01    -0.007 A 
DOCKED: ATOM      8  C4A HEM A1501      54.404  78.316   7.666 -0.34 +0.06    +0.079 A 
DOCKED: ATOM      9  CMA HEM A1501      54.090  79.134   5.209 -0.48 +0.03    +0.032 C 
DOCKED: ATOM     10  C1B HEM A1501      54.808  75.948   8.214 -0.37 +0.04    +0.079 A 
DOCKED: ATOM     11  C2B HEM A1501      54.950  74.554   7.811 -0.47 -0.00    -0.003 A 
DOCKED: ATOM     12  C3B HEM A1501      55.177  73.870   8.963 -0.46 +0.01    +0.015 A 
DOCKED: ATOM     13  C4B HEM A1501      55.197  74.845  10.050 -0.37 +0.03    +0.083 A 
DOCKED: ATOM     14  CMB HEM A1501      54.847  74.053   6.397 -0.57 +0.02    +0.033 C 
DOCKED: ATOM     15  C1C HEM A1501      55.444  75.404  12.469 -0.33 +0.03    +0.079 A 
DOCKED: ATOM     16  C2C HEM A1501      55.768  75.044  13.822 -0.40 -0.00    -0.003 A 
DOCKED: ATOM     17  C3C HEM A1501      55.686  76.189  14.549 -0.39 +0.01    +0.015 A 
DOCKED: ATOM     18  C4C HEM A1501      55.296  77.259  13.610 -0.31 +0.04    +0.083 A 
DOCKED: ATOM     19  CMC HEM A1501      56.120  73.636  14.256 -0.54 +0.01    +0.033 C 
DOCKED: ATOM     20  C1D HEM A1501      54.704  79.693  13.027 -0.29 +0.05    +0.079 A 
DOCKED: ATOM     21  C2D HEM A1501      54.486  81.054  13.414 -0.36 -0.00    -0.007 A 
DOCKED: ATOM     22  C3D HEM A1501      54.223  81.740  12.272 -0.33 -0.01    -0.006 A 
DOCKED: ATOM     23  C4D HEM A1501      54.289  80.791  11.177 -0.21 +0.07    +0.079 A 
DOCKED: ATOM     24  CMD HEM A1501      54.539  81.602  14.784 -0.46 +0.02    +0.032 C 
DOCKED: ATOM     25  NA  HEM A1501      54.452  78.830   8.929 -0.19 -0.20    -0.246 N 
DOCKED: ATOM     26  NB  HEM A1501      54.949  76.084   9.574 -0.11 -0.12    -0.246 N 
DOCKED: ATOM     27  NC  HEM A1501      55.194  76.734  12.388 -0.10 -0.11    -0.246 N 
DOCKED: ATOM     28  ND  HEM A1501      54.585  79.560  11.672 -0.10 -0.18    -0.246 N 
DOCKED: ATOM     29 FE   HEM A1501      54.805  77.809  10.662 -0.07 +0.00    +0.000 Fe
DOCKED: ENDROOT
DOCKED: BRANCH  22  30
DOCKED: ATOM     30  CAD HEM A1501      53.934  83.193  12.226 -0.40 +0.05    +0.039 C 
DOCKED: BRANCH  30  31
DOCKED: ATOM     31  CBD HEM A1501      52.482  83.498  12.595 -0.46 +0.12    +0.102 C 
DOCKED: BRANCH  31  32
DOCKED: ATOM     32  CGD HEM A1501      52.315  84.843  13.276 -0.47 +0.27    +0.186 C 
DOCKED: ATOM     33  O1D HEM A1501      53.391  85.474  13.366 -0.47 -1.18    -0.647 OA
DOCKED: ATOM     34  O2D HEM A1501      51.152  85.298  13.672 -0.77 -0.93    -0.647 OA
DOCKED: ENDBRANCH  31  32
DOCKED: ENDBRANCH  30  31
DOCKED: ENDBRANCH  22  30
DOCKED: BRANCH   6  35
DOCKED: ATOM     35  CAA HEM A1501      53.796  81.804   6.731 -0.46 +0.05    +0.039 C 
DOCKED: BRANCH  35  36
DOCKED: ATOM     36  CBA HEM A1501      52.349  82.234   6.875 -0.57 +0.16    +0.102 C 
DOCKED: BRANCH  36  37
DOCKED: ATOM     37  CGA HEM A1501      52.034  83.566   6.252 -0.61 +0.35    +0.186 C 
DOCKED: ATOM     38  O1A HEM A1501      52.750  84.548   6.555 -1.15 -1.67    -0.647 OA
DOCKED: ATOM     39  O2A HEM A1501      51.101  83.628   5.425 -1.06 -1.32    -0.647 OA
DOCKED: ENDBRANCH  36  37
DOCKED: ENDBRANCH  35  36
DOCKED: ENDBRANCH   6  35
DOCKED: BRANCH  17  40
DOCKED: ATOM     40  CAC HEM A1501      55.920  76.373  15.986 -0.55 +0.00    +0.001 C 
DOCKED: ATOM     41  CBC HEM A1501      55.188  75.869  16.991 -0.65 +0.00    +0.000 C 
DOCKED: ENDBRANCH  17  40
DOCKED: BRANCH  12  42
DOCKED: ATOM     42  CAB HEM A1501      55.389  72.426   9.213 -0.56 +0.00    +0.001 C 
DOCKED: ATOM     43  CBB HEM A1501      56.006  71.812  10.202 -0.56 +0.00    +0.000 C 
DOCKED: ENDBRANCH  12  42
DOCKED: TORSDOF 8
DOCKED: TER
DOCKED: ENDMDL
________________________________________________________________________________


	BEGINNING GENETIC ALGORITHM DOCKING 98 of 100
Run: 98 Seed: 1241752899 812336536 [ Run 98 of 100 GA/GALS ]
Beginning LAMARCKIAN GENETIC ALGORITHM (LGA), with a maximum of 2500000 energy evaluations.

Final-Value: -23.466


	FINAL GENETIC ALGORITHM DOCKED STATE
	_______________________________________________


Detailed state:  trans 54.944 78.915 10.699 quatxyzw 0.169446 -0.972609 0.159048 0.004773 center 54.495 78.699 10.493 ntor 8 143.8363 -180.0000 -135.8808 163.1732 21.8118 6.5982 -160.9502 151.6241
State:	 54.944  78.915  10.699   0.169 -0.973  0.159 179.453    143.84 -180.00 -135.88  163.17   21.81    6.60 -160.95  151.62

DOCKED: MODEL       98
DOCKED: USER    Run = 98
DOCKED: USER    DPF = C:/Users/georg/Desktop/Dock/executables_autodock_tools/receptor.dpf
DOCKED: USER  
DOCKED: USER    Estimated Free Energy of Binding    =  -20.63 kcal/mol  [=(1)+(2)+(3)-(4)]
DOCKED: USER    Estimated Inhibition Constant, Ki   =  751.41 aM (attomolar)  [Temperature = 298.15 K]
DOCKED: USER    
DOCKED: USER    (1) Final Intermolecular Energy     =  -23.02 kcal/mol
DOCKED: USER        vdW + Hbond + desolv Energy     =  -18.56 kcal/mol
DOCKED: USER        Electrostatic Energy            =   -4.46 kcal/mol
DOCKED: USER    (2) Final Total Internal Energy     =   -0.45 kcal/mol
DOCKED: USER    (3) Torsional Free Energy           =   +2.39 kcal/mol
DOCKED: USER    (4) Unbound System's Energy  [=(2)] =   -0.45 kcal/mol
DOCKED: USER    
DOCKED: USER    
DOCKED: USER    NEWDPF move ligand.pdbqt
DOCKED: USER    NEWDPF about 54.495000 78.699000 10.493000
DOCKED: USER    NEWDPF tran0 54.944172 78.915079 10.699084
DOCKED: USER    NEWDPF quaternion0 0.169446 -0.972609 0.159048 0.004773
DOCKED: USER    NEWDPF axisangle0 0.169448 -0.972620 0.159050 179.453005
DOCKED: USER    NEWDPF quat0 0.169448 -0.972620 0.159050 179.453005
DOCKED: USER    NEWDPF dihe0 143.84 -180.00 -135.88 163.17 21.81 6.60 -160.95 151.62 
DOCKED: USER  keepresnum = 1 
DOCKED: USER  
DOCKED: REMARK  8 active torsions:
DOCKED: REMARK  status: ('A' for Active; 'I' for Inactive)
DOCKED: REMARK    1  A    between atoms: C2A_3624  and  CAA_3628 
DOCKED: REMARK    2  A    between atoms: CAA_3628  and  CBA_3629 
DOCKED: REMARK    3  A    between atoms: CBA_3629  and  CGA_3630 
DOCKED: REMARK    4  A    between atoms: C3B_3635  and  CAB_3638 
DOCKED: REMARK    5  A    between atoms: C3C_3642  and  CAC_3645 
DOCKED: REMARK    6  A    between atoms: C3D_3649  and  CAD_3652 
DOCKED: REMARK    7  A    between atoms: CAD_3652  and  CBD_3653 
DOCKED: REMARK    8  A    between atoms: CBD_3653  and  CGD_3654 
DOCKED: USER                              x       y       z     vdW  Elec       q    Type
DOCKED: USER                           _______ _______ _______ _____ _____    ______ ____
DOCKED: ROOT
DOCKED: ATOM      1  CHA HEM A1501      54.216  81.144  10.362 -0.27 +0.04    +0.038 A 
DOCKED: ATOM      2  CHB HEM A1501      54.528  77.278   7.516 -0.39 +0.03    +0.038 A 
DOCKED: ATOM      3  CHC HEM A1501      55.432  74.496  11.354 -0.40 +0.01    +0.038 A 
DOCKED: ATOM      4  CHD HEM A1501      55.185  78.379  14.196 -0.38 +0.02    +0.038 A 
DOCKED: ATOM      5  C1A HEM A1501      54.248  80.336   9.231 -0.25 +0.08    +0.079 A 
DOCKED: ATOM      6  C2A HEM A1501      54.067  80.763   7.839 -0.35 -0.01    -0.006 A 
DOCKED: ATOM      7  C3A HEM A1501      54.155  79.680   7.081 -0.36 -0.01    -0.007 A 
DOCKED: ATOM      8  C4A HEM A1501      54.399  78.579   7.963 -0.32 +0.06    +0.079 A 
DOCKED: ATOM      9  CMA HEM A1501      54.048  79.602   5.588 -0.47 +0.03    +0.032 C 
DOCKED: ATOM     10  C1B HEM A1501      54.772  76.168   8.304 -0.36 +0.05    +0.079 A 
DOCKED: ATOM     11  C2B HEM A1501      54.881  74.810   7.786 -0.47 -0.00    -0.003 A 
DOCKED: ATOM     12  C3B HEM A1501      55.119  74.030   8.872 -0.45 +0.01    +0.015 A 
DOCKED: ATOM     13  C4B HEM A1501      55.180  74.911  10.035 -0.36 +0.03    +0.083 A 
DOCKED: ATOM     14  CMB HEM A1501      54.739  74.429   6.338 -0.58 +0.02    +0.033 C 
DOCKED: ATOM     15  C1C HEM A1501      55.487  75.264  12.485 -0.34 +0.03    +0.079 A 
DOCKED: ATOM     16  C2C HEM A1501      55.833  74.789  13.797 -0.42 -0.00    -0.003 A 
DOCKED: ATOM     17  C3C HEM A1501      55.786  75.871  14.617 -0.39 +0.01    +0.015 A 
DOCKED: ATOM     18  C4C HEM A1501      55.396  77.021  13.778 -0.32 +0.03    +0.083 A 
DOCKED: ATOM     19  CMC HEM A1501      56.168  73.344  14.105 -0.56 +0.01    +0.033 C 
DOCKED: ATOM     20  C1D HEM A1501      54.835  79.504  13.410 -0.32 +0.05    +0.079 A 
DOCKED: ATOM     21  C2D HEM A1501      54.649  80.832  13.912 -0.38 -0.00    -0.007 A 
DOCKED: ATOM     22  C3D HEM A1501      54.375  81.614  12.837 -0.33 -0.00    -0.006 A 
DOCKED: ATOM     23  C4D HEM A1501      54.401  80.758  11.667 -0.23 +0.07    +0.079 A 
DOCKED: ATOM     24  CMD HEM A1501      54.741  81.264  15.321 -0.47 +0.01    +0.032 C 
DOCKED: ATOM     25  NA  HEM A1501      54.482  78.986   9.261 -0.17 -0.20    -0.246 N 
DOCKED: ATOM     26  NB  HEM A1501      54.944  76.189   9.668 -0.03 -0.12    -0.246 N 
DOCKED: ATOM     27  NC  HEM A1501      55.259  76.600  12.520 -0.15 -0.11    -0.246 N 
DOCKED: ATOM     28  ND  HEM A1501      54.686  79.486  12.052 -0.13 -0.17    -0.246 N 
DOCKED: ATOM     29 FE   HEM A1501      54.853  77.820  10.896 -0.07 +0.00    +0.000 Fe
DOCKED: ENDROOT
DOCKED: BRANCH  22  30
DOCKED: ATOM     30  CAD HEM A1501      54.110  83.070  12.916 -0.40 +0.04    +0.039 C 
DOCKED: BRANCH  30  31
DOCKED: ATOM     31  CBD HEM A1501      52.704  83.367  13.434 -0.50 +0.11    +0.102 C 
DOCKED: BRANCH  31  32
DOCKED: ATOM     32  CGD HEM A1501      52.190  84.729  13.004 -0.46 +0.27    +0.186 C 
DOCKED: ATOM     33  O1D HEM A1501      52.949  85.294  12.187 -0.59 -1.44    -0.647 OA
DOCKED: ATOM     34  O2D HEM A1501      51.046  85.218  13.417 -0.70 -0.92    -0.647 OA
DOCKED: ENDBRANCH  31  32
DOCKED: ENDBRANCH  30  31
DOCKED: ENDBRANCH  22  30
DOCKED: BRANCH   6  35
DOCKED: ATOM     35  CAA HEM A1501      53.834  82.142   7.330 -0.44 +0.06    +0.039 C 
DOCKED: BRANCH  35  36
DOCKED: ATOM     36  CBA HEM A1501      52.422  82.313   6.803 -0.57 +0.16    +0.102 C 
DOCKED: BRANCH  36  37
DOCKED: ATOM     37  CGA HEM A1501      52.140  83.669   6.217 -0.64 +0.35    +0.186 C 
DOCKED: ATOM     38  O1A HEM A1501      52.936  84.603   6.470 -1.16 -1.72    -0.647 OA
DOCKED: ATOM     39  O2A HEM A1501      51.152  83.796   5.465 -1.05 -1.32    -0.647 OA
DOCKED: ENDBRANCH  36  37
DOCKED: ENDBRANCH  35  36
DOCKED: ENDBRANCH   6  35
DOCKED: BRANCH  17  40
DOCKED: ATOM     40  CAC HEM A1501      56.054  75.933  16.058 -0.56 +0.00    +0.001 C 
DOCKED: ATOM     41  CBC HEM A1501      55.146  75.899  17.046 -0.65 +0.00    +0.000 C 
DOCKED: ENDBRANCH  17  40
DOCKED: BRANCH  12  42
DOCKED: ATOM     42  CAB HEM A1501      55.311  72.566   8.998 -0.55 +0.00    +0.001 C 
DOCKED: ATOM     43  CBB HEM A1501      55.930  71.862   9.924 -0.57 +0.00    +0.000 C 
DOCKED: ENDBRANCH  12  42
DOCKED: TORSDOF 8
DOCKED: TER
DOCKED: ENDMDL
________________________________________________________________________________


	BEGINNING GENETIC ALGORITHM DOCKING 99 of 100
Run: 99 Seed: 1416191406 730057629 [ Run 99 of 100 GA/GALS ]
Beginning LAMARCKIAN GENETIC ALGORITHM (LGA), with a maximum of 2500000 energy evaluations.

Final-Value: -23.523


	FINAL GENETIC ALGORITHM DOCKED STATE
	_______________________________________________


Detailed state:  trans 54.926 78.843 10.671 quatxyzw -0.171984 0.974120 -0.146637 -0.003183 center 54.495 78.699 10.493 ntor 8 121.3850 42.8112 -112.1708 160.2784 9.7809 15.7014 -178.7016 153.8204
State:	 54.926  78.843  10.671  -0.172  0.974 -0.147 -179.635    121.38   42.81 -112.17  160.28    9.78   15.70 -178.70  153.82

DOCKED: MODEL       99
DOCKED: USER    Run = 99
DOCKED: USER    DPF = C:/Users/georg/Desktop/Dock/executables_autodock_tools/receptor.dpf
DOCKED: USER  
DOCKED: USER    Estimated Free Energy of Binding    =  -20.60 kcal/mol  [=(1)+(2)+(3)-(4)]
DOCKED: USER    Estimated Inhibition Constant, Ki   =  793.15 aM (attomolar)  [Temperature = 298.15 K]
DOCKED: USER    
DOCKED: USER    (1) Final Intermolecular Energy     =  -22.99 kcal/mol
DOCKED: USER        vdW + Hbond + desolv Energy     =  -18.57 kcal/mol
DOCKED: USER        Electrostatic Energy            =   -4.42 kcal/mol
DOCKED: USER    (2) Final Total Internal Energy     =   -0.54 kcal/mol
DOCKED: USER    (3) Torsional Free Energy           =   +2.39 kcal/mol
DOCKED: USER    (4) Unbound System's Energy  [=(2)] =   -0.54 kcal/mol
DOCKED: USER    
DOCKED: USER    
DOCKED: USER    NEWDPF move ligand.pdbqt
DOCKED: USER    NEWDPF about 54.495000 78.699000 10.493000
DOCKED: USER    NEWDPF tran0 54.925561 78.843345 10.671286
DOCKED: USER    NEWDPF quaternion0 -0.171984 0.974120 -0.146637 -0.003183
DOCKED: USER    NEWDPF axisangle0 -0.171985 0.974125 -0.146637 -179.635218
DOCKED: USER    NEWDPF quat0 -0.171985 0.974125 -0.146637 -179.635218
DOCKED: USER    NEWDPF dihe0 121.38 42.81 -112.17 160.28 9.78 15.70 -178.70 153.82 
DOCKED: USER  keepresnum = 1 
DOCKED: USER  
DOCKED: REMARK  8 active torsions:
DOCKED: REMARK  status: ('A' for Active; 'I' for Inactive)
DOCKED: REMARK    1  A    between atoms: C2A_3624  and  CAA_3628 
DOCKED: REMARK    2  A    between atoms: CAA_3628  and  CBA_3629 
DOCKED: REMARK    3  A    between atoms: CBA_3629  and  CGA_3630 
DOCKED: REMARK    4  A    between atoms: C3B_3635  and  CAB_3638 
DOCKED: REMARK    5  A    between atoms: C3C_3642  and  CAC_3645 
DOCKED: REMARK    6  A    between atoms: C3D_3649  and  CAD_3652 
DOCKED: REMARK    7  A    between atoms: CAD_3652  and  CBD_3653 
DOCKED: REMARK    8  A    between atoms: CBD_3653  and  CGD_3654 
DOCKED: USER                              x       y       z     vdW  Elec       q    Type
DOCKED: USER                           _______ _______ _______ _____ _____    ______ ____
DOCKED: ROOT
DOCKED: ATOM      1  CHA HEM A1501      54.186  81.077  10.394 -0.27 +0.04    +0.038 A 
DOCKED: ATOM      2  CHB HEM A1501      54.490  77.282   7.454 -0.39 +0.03    +0.038 A 
DOCKED: ATOM      3  CHC HEM A1501      55.436  74.412  11.216 -0.40 +0.01    +0.038 A 
DOCKED: ATOM      4  CHD HEM A1501      55.197  78.224  14.153 -0.38 +0.02    +0.038 A 
DOCKED: ATOM      5  C1A HEM A1501      54.212  80.296   9.243 -0.25 +0.08    +0.079 A 
DOCKED: ATOM      6  C2A HEM A1501      54.018  80.755   7.864 -0.35 -0.01    -0.006 A 
DOCKED: ATOM      7  C3A HEM A1501      54.104  79.691   7.079 -0.36 -0.01    -0.007 A 
DOCKED: ATOM      8  C4A HEM A1501      54.359  78.571   7.932 -0.33 +0.06    +0.079 A 
DOCKED: ATOM      9  CMA HEM A1501      53.985  79.649   5.586 -0.47 +0.03    +0.032 C 
DOCKED: ATOM     10  C1B HEM A1501      54.745  76.154   8.213 -0.36 +0.05    +0.079 A 
DOCKED: ATOM     11  C2B HEM A1501      54.855  74.809   7.661 -0.47 -0.00    -0.003 A 
DOCKED: ATOM     12  C3B HEM A1501      55.105  74.004   8.726 -0.45 +0.01    +0.015 A 
DOCKED: ATOM     13  C4B HEM A1501      55.172  74.858   9.909 -0.37 +0.03    +0.083 A 
DOCKED: ATOM     14  CMB HEM A1501      54.703  74.463   6.205 -0.59 +0.02    +0.033 C 
DOCKED: ATOM     15  C1C HEM A1501      55.497  75.153  12.365 -0.34 +0.03    +0.079 A 
DOCKED: ATOM     16  C2C HEM A1501      55.856  74.648  13.662 -0.43 -0.00    -0.003 A 
DOCKED: ATOM     17  C3C HEM A1501      55.812  75.709  14.507 -0.39 +0.01    +0.015 A 
DOCKED: ATOM     18  C4C HEM A1501      55.410  76.878  13.700 -0.31 +0.03    +0.083 A 
DOCKED: ATOM     19  CMC HEM A1501      56.199  73.197  13.933 -0.55 +0.01    +0.033 C 
DOCKED: ATOM     20  C1D HEM A1501      54.836  79.366  13.397 -0.32 +0.04    +0.079 A 
DOCKED: ATOM     21  C2D HEM A1501      54.649  80.681  13.932 -0.39 -0.00    -0.007 A 
DOCKED: ATOM     22  C3D HEM A1501      54.363  81.487  12.878 -0.33 -0.00    -0.006 A 
DOCKED: ATOM     23  C4D HEM A1501      54.383  80.660  11.687 -0.22 +0.07    +0.079 A 
DOCKED: ATOM     24  CMD HEM A1501      54.751  81.079  15.350 -0.43 +0.01    +0.032 C 
DOCKED: ATOM     25  NA  HEM A1501      54.451  78.947   9.239 -0.17 -0.20    -0.246 N 
DOCKED: ATOM     26  NB  HEM A1501      54.928  76.143   9.575 -0.09 -0.12    -0.246 N 
DOCKED: ATOM     27  NC  HEM A1501      55.264  76.487  12.433 -0.15 -0.11    -0.246 N 
DOCKED: ATOM     28  ND  HEM A1501      54.676  79.380  12.039 -0.11 -0.17    -0.246 N 
DOCKED: ATOM     29 FE   HEM A1501      54.841  77.744  10.843 -0.07 +0.00    +0.000 Fe
DOCKED: ENDROOT
DOCKED: BRANCH  22  30
DOCKED: ATOM     30  CAD HEM A1501      54.094  82.940  12.994 -0.40 +0.04    +0.039 C 
DOCKED: BRANCH  30  31
DOCKED: ATOM     31  CBD HEM A1501      52.598  83.236  13.103 -0.52 +0.11    +0.102 C 
DOCKED: BRANCH  31  32
DOCKED: ATOM     32  CGD HEM A1501      52.272  84.709  12.937 -0.45 +0.27    +0.186 C 
DOCKED: ATOM     33  O1D HEM A1501      53.071  85.295  12.174 -0.58 -1.46    -0.647 OA
DOCKED: ATOM     34  O2D HEM A1501      51.232  85.273  13.499 -0.69 -0.95    -0.647 OA
DOCKED: ENDBRANCH  31  32
DOCKED: ENDBRANCH  30  31
DOCKED: ENDBRANCH  22  30
DOCKED: BRANCH   6  35
DOCKED: ATOM     35  CAA HEM A1501      53.775  82.145   7.390 -0.44 +0.06    +0.039 C 
DOCKED: BRANCH  35  36
DOCKED: ATOM     36  CBA HEM A1501      52.343  82.338   6.929 -0.57 +0.16    +0.102 C 
DOCKED: BRANCH  36  37
DOCKED: ATOM     37  CGA HEM A1501      52.100  83.622   6.185 -0.63 +0.35    +0.186 C 
DOCKED: ATOM     38  O1A HEM A1501      52.934  84.548   6.309 -1.20 -1.63    -0.647 OA
DOCKED: ATOM     39  O2A HEM A1501      51.101  83.695   5.439 -1.06 -1.32    -0.647 OA
DOCKED: ENDBRANCH  36  37
DOCKED: ENDBRANCH  35  36
DOCKED: ENDBRANCH   6  35
DOCKED: BRANCH  17  40
DOCKED: ATOM     40  CAC HEM A1501      56.090  75.738  15.948 -0.55 +0.00    +0.001 C 
DOCKED: ATOM     41  CBC HEM A1501      55.240  76.092  16.924 -0.63 +0.00    +0.000 C 
DOCKED: ENDBRANCH  17  40
DOCKED: BRANCH  12  42
DOCKED: ATOM     42  CAB HEM A1501      55.303  72.539   8.815 -0.54 +0.00    +0.001 C 
DOCKED: ATOM     43  CBB HEM A1501      55.617  71.661   7.883 -0.54 +0.00    +0.000 C 
DOCKED: ENDBRANCH  12  42
DOCKED: TORSDOF 8
DOCKED: TER
DOCKED: ENDMDL
________________________________________________________________________________


	BEGINNING GENETIC ALGORITHM DOCKING 100 of 100
Run: 100 Seed: 1372064548 455352247 [ Run 100 of 100 GA/GALS ]
Beginning LAMARCKIAN GENETIC ALGORITHM (LGA), with a maximum of 2500000 energy evaluations.

Final-Value: -23.459


	FINAL GENETIC ALGORITHM DOCKED STATE
	_______________________________________________


Detailed state:  trans 54.933 78.780 10.645 quatxyzw 0.163979 -0.975523 0.146365 -0.006502 center 54.495 78.699 10.493 ntor 8 133.4038 56.2135 -128.8019 -15.8637 12.2604 6.9849 -175.1794 145.9840
State:	 54.933  78.780  10.645   0.164 -0.976  0.146 -179.255    133.40   56.21 -128.80  -15.86   12.26    6.98 -175.18  145.98

DOCKED: MODEL      100
DOCKED: USER    Run = 100
DOCKED: USER    DPF = C:/Users/georg/Desktop/Dock/executables_autodock_tools/receptor.dpf
DOCKED: USER  
DOCKED: USER    Estimated Free Energy of Binding    =  -20.57 kcal/mol  [=(1)+(2)+(3)-(4)]
DOCKED: USER    Estimated Inhibition Constant, Ki   =  837.11 aM (attomolar)  [Temperature = 298.15 K]
DOCKED: USER    
DOCKED: USER    (1) Final Intermolecular Energy     =  -22.96 kcal/mol
DOCKED: USER        vdW + Hbond + desolv Energy     =  -18.47 kcal/mol
DOCKED: USER        Electrostatic Energy            =   -4.48 kcal/mol
DOCKED: USER    (2) Final Total Internal Energy     =   -0.50 kcal/mol
DOCKED: USER    (3) Torsional Free Energy           =   +2.39 kcal/mol
DOCKED: USER    (4) Unbound System's Energy  [=(2)] =   -0.50 kcal/mol
DOCKED: USER    
DOCKED: USER    
DOCKED: USER    NEWDPF move ligand.pdbqt
DOCKED: USER    NEWDPF about 54.495000 78.699000 10.493000
DOCKED: USER    NEWDPF tran0 54.933008 78.779766 10.644935
DOCKED: USER    NEWDPF quaternion0 0.163979 -0.975523 0.146365 -0.006502
DOCKED: USER    NEWDPF axisangle0 0.163982 -0.975544 0.146368 -179.254940
DOCKED: USER    NEWDPF quat0 0.163982 -0.975544 0.146368 -179.254940
DOCKED: USER    NEWDPF dihe0 133.40 56.21 -128.80 -15.86 12.26 6.98 -175.18 145.98 
DOCKED: USER  keepresnum = 1 
DOCKED: USER  
DOCKED: REMARK  8 active torsions:
DOCKED: REMARK  status: ('A' for Active; 'I' for Inactive)
DOCKED: REMARK    1  A    between atoms: C2A_3624  and  CAA_3628 
DOCKED: REMARK    2  A    between atoms: CAA_3628  and  CBA_3629 
DOCKED: REMARK    3  A    between atoms: CBA_3629  and  CGA_3630 
DOCKED: REMARK    4  A    between atoms: C3B_3635  and  CAB_3638 
DOCKED: REMARK    5  A    between atoms: C3C_3642  and  CAC_3645 
DOCKED: REMARK    6  A    between atoms: C3D_3649  and  CAD_3652 
DOCKED: REMARK    7  A    between atoms: CAD_3652  and  CBD_3653 
DOCKED: REMARK    8  A    between atoms: CBD_3653  and  CGD_3654 
DOCKED: USER                              x       y       z     vdW  Elec       q    Type
DOCKED: USER                           _______ _______ _______ _____ _____    ______ ____
DOCKED: ROOT
DOCKED: ATOM      1  CHA HEM A1501      54.231  81.026  10.374 -0.26 +0.04    +0.038 A 
DOCKED: ATOM      2  CHB HEM A1501      54.415  77.220   7.439 -0.40 +0.03    +0.038 A 
DOCKED: ATOM      3  CHC HEM A1501      55.368  74.341  11.192 -0.40 +0.01    +0.038 A 
DOCKED: ATOM      4  CHD HEM A1501      55.250  78.163  14.123 -0.38 +0.02    +0.038 A 
DOCKED: ATOM      5  C1A HEM A1501      54.223  80.242   9.225 -0.25 +0.08    +0.079 A 
DOCKED: ATOM      6  C2A HEM A1501      54.015  80.703   7.848 -0.35 -0.01    -0.006 A 
DOCKED: ATOM      7  C3A HEM A1501      54.068  79.635   7.065 -0.37 -0.01    -0.007 A 
DOCKED: ATOM      8  C4A HEM A1501      54.316  78.512   7.916 -0.33 +0.06    +0.079 A 
DOCKED: ATOM      9  CMA HEM A1501      53.924  79.592   5.574 -0.45 +0.03    +0.032 C 
DOCKED: ATOM     10  C1B HEM A1501      54.660  76.089   8.196 -0.37 +0.05    +0.079 A 
DOCKED: ATOM     11  C2B HEM A1501      54.736  74.741   7.646 -0.47 -0.00    -0.003 A 
DOCKED: ATOM     12  C3B HEM A1501      54.989  73.934   8.709 -0.45 +0.01    +0.015 A 
DOCKED: ATOM     13  C4B HEM A1501      55.091  74.788   9.888 -0.37 +0.03    +0.083 A 
DOCKED: ATOM     14  CMB HEM A1501      54.553  74.394   6.194 -0.59 +0.02    +0.033 C 
DOCKED: ATOM     15  C1C HEM A1501      55.463  75.083  12.338 -0.35 +0.03    +0.079 A 
DOCKED: ATOM     16  C2C HEM A1501      55.833  74.574  13.630 -0.43 -0.00    -0.003 A 
DOCKED: ATOM     17  C3C HEM A1501      55.824  75.638  14.474 -0.39 +0.01    +0.015 A 
DOCKED: ATOM     18  C4C HEM A1501      55.430  76.812  13.670 -0.31 +0.03    +0.083 A 
DOCKED: ATOM     19  CMC HEM A1501      56.154  73.118  13.899 -0.54 +0.01    +0.033 C 
DOCKED: ATOM     20  C1D HEM A1501      54.899  79.310  13.370 -0.32 +0.04    +0.079 A 
DOCKED: ATOM     21  C2D HEM A1501      54.746  80.629  13.905 -0.38 -0.00    -0.007 A 
DOCKED: ATOM     22  C3D HEM A1501      54.458  81.439  12.854 -0.32 -0.00    -0.006 A 
DOCKED: ATOM     23  C4D HEM A1501      54.442  80.609  11.665 -0.22 +0.07    +0.079 A 
DOCKED: ATOM     24  CMD HEM A1501      54.879  81.029  15.321 -0.43 +0.01    +0.032 C 
DOCKED: ATOM     25  NA  HEM A1501      54.437  78.889   9.221 -0.17 -0.20    -0.246 N 
DOCKED: ATOM     26  NB  HEM A1501      54.866  76.077   9.555 -0.10 -0.12    -0.246 N 
DOCKED: ATOM     27  NC  HEM A1501      55.256  76.421  12.407 -0.15 -0.11    -0.246 N 
DOCKED: ATOM     28  ND  HEM A1501      54.716  79.324  12.016 -0.12 -0.17    -0.246 N 
DOCKED: ATOM     29 FE   HEM A1501      54.830  77.682  10.821 -0.07 +0.00    +0.000 Fe
DOCKED: ENDROOT
DOCKED: BRANCH  22  30
DOCKED: ATOM     30  CAD HEM A1501      54.217  82.897  12.971 -0.38 +0.04    +0.039 C 
DOCKED: BRANCH  30  31
DOCKED: ATOM     31  CBD HEM A1501      52.739  83.216  13.191 -0.51 +0.11    +0.102 C 
DOCKED: BRANCH  31  32
DOCKED: ATOM     32  CGD HEM A1501      52.410  84.681  12.971 -0.45 +0.27    +0.186 C 
DOCKED: ATOM     33  O1D HEM A1501      53.325  85.296  12.381 -0.62 -1.45    -0.647 OA
DOCKED: ATOM     34  O2D HEM A1501      51.265  85.211  13.324 -0.61 -0.95    -0.647 OA
DOCKED: ENDBRANCH  31  32
DOCKED: ENDBRANCH  30  31
DOCKED: ENDBRANCH  22  30
DOCKED: BRANCH   6  35
DOCKED: ATOM     35  CAA HEM A1501      53.790  82.096   7.375 -0.44 +0.06    +0.039 C 
DOCKED: BRANCH  35  36
DOCKED: ATOM     36  CBA HEM A1501      52.414  82.264   6.761 -0.57 +0.15    +0.102 C 
DOCKED: BRANCH  36  37
DOCKED: ATOM     37  CGA HEM A1501      52.150  83.634   6.198 -0.64 +0.35    +0.186 C 
DOCKED: ATOM     38  O1A HEM A1501      51.169  83.783   5.434 -1.06 -1.31    -0.647 OA
DOCKED: ATOM     39  O2A HEM A1501      52.892  84.573   6.552 -1.17 -1.72    -0.647 OA
DOCKED: ENDBRANCH  36  37
DOCKED: ENDBRANCH  35  36
DOCKED: ENDBRANCH   6  35
DOCKED: BRANCH  17  40
DOCKED: ATOM     40  CAC HEM A1501      56.127  75.664  15.909 -0.55 +0.00    +0.001 C 
DOCKED: ATOM     41  CBC HEM A1501      55.249  75.818  16.913 -0.64 +0.00    +0.000 C 
DOCKED: ENDBRANCH  17  40
DOCKED: BRANCH  12  42
DOCKED: ATOM     42  CAB HEM A1501      55.160  72.465   8.798 -0.56 +0.00    +0.001 C 
DOCKED: ATOM     43  CBB HEM A1501      55.664  71.610   7.932 -0.54 +0.00    +0.000 C 
DOCKED: ENDBRANCH  12  42
DOCKED: TORSDOF 8
DOCKED: TER
DOCKED: ENDMDL
________________________________________________________________________________

DPF> analysis                             # perform a ranked cluster analysis


		CLUSTER ANALYSIS OF CONFORMATIONS
		_________________________________

Number of conformations = 100

RMSD cluster analysis will be performed using the ligand atoms only (43 / 43 total atoms).

Outputting structurally similar clusters, ranked in order of increasing energy.


________________________________________________________________________________

Number of distinct conformational clusters found = 1,  out of 100 runs,
Using an rmsd-tolerance of 2.0 A


	CLUSTERING HISTOGRAM
	____________________

________________________________________________________________________________
     |           |     |           |     |                                    
Clus | Lowest    | Run | Mean      | Num | Histogram                          
-ter | Binding   |     | Binding   | in  |                                    
Rank | Energy    |     | Energy    | Clus|    5    10   15   20   25   30   35
_____|___________|_____|___________|_____|____:____|____:____|____:____|____:___
   1 |    -20.73 |   1 |    -20.33 | 100 |####################################################################################################
_____|___________|_____|___________|_____|______________________________________


Number of multi-member conformational clusters found = 1, out of 100 runs.

	RMSD TABLE
	__________

_____________________________________________________________________
     |      |      |           |         |                 |
Rank | Sub- | Run  | Binding   | Cluster | Reference       | Grep
     | Rank |      | Energy    | RMSD    | RMSD            | Pattern
_____|______|______|___________|_________|_________________|___________
   1      1      1      -20.73      0.00      0.46           RANKING
   1      2     64      -20.72      0.25      0.40           RANKING
   1      3     95      -20.65      0.24      0.39           RANKING
   1      4     61      -20.64      0.26      0.40           RANKING
   1      5     98      -20.63      0.22      0.42           RANKING
   1      6     94      -20.63      0.14      0.44           RANKING
   1      7     67      -20.62      0.22      0.52           RANKING
   1      8     71      -20.60      0.31      0.37           RANKING
   1      9     99      -20.60      0.16      0.43           RANKING
   1     10     54      -20.60      0.25      0.44           RANKING
   1     11     27      -20.59      0.25      0.41           RANKING
   1     12     44      -20.58      0.25      0.48           RANKING
   1     13     22      -20.58      0.30      0.39           RANKING
   1     14     58      -20.58      0.25      0.41           RANKING
   1     15    100      -20.57      0.23      0.41           RANKING
   1     16     87      -20.57      0.24      0.45           RANKING
   1     17     93      -20.56      0.23      0.49           RANKING
   1     18     92      -20.56      0.23      0.51           RANKING
   1     19     38      -20.56      0.19      0.43           RANKING
   1     20      7      -20.56      0.17      0.46           RANKING
   1     21     28      -20.54      0.22      0.42           RANKING
   1     22     68      -20.54      0.22      0.42           RANKING
   1     23     62      -20.53      0.14      0.46           RANKING
   1     24     29      -20.52      0.33      0.39           RANKING
   1     25     12      -20.52      0.32      0.38           RANKING
   1     26     56      -20.51      0.27      0.42           RANKING
   1     27     70      -20.51      0.30      0.39           RANKING
   1     28      6      -20.51      0.25      0.41           RANKING
   1     29     41      -20.50      0.42      0.63           RANKING
   1     30      4      -20.49      0.27      0.40           RANKING
   1     31     90      -20.49      0.43      0.64           RANKING
   1     32     18      -20.48      0.32      0.49           RANKING
   1     33     36      -20.47      0.35      0.40           RANKING
   1     34     78      -20.47      0.42      0.59           RANKING
   1     35     48      -20.46      0.38      0.50           RANKING
   1     36     57      -20.46      0.31      0.44           RANKING
   1     37     84      -20.44      0.35      0.37           RANKING
   1     38      3      -20.42      0.37      0.57           RANKING
   1     39     21      -20.42      0.38      0.58           RANKING
   1     40     55      -20.42      0.48      0.38           RANKING
   1     41     76      -20.41      0.38      0.57           RANKING
   1     42     88      -20.41      0.40      0.58           RANKING
   1     43     26      -20.40      0.36      0.50           RANKING
   1     44     77      -20.40      0.47      0.34           RANKING
   1     45     13      -20.39      0.42      0.61           RANKING
   1     46     45      -20.38      0.23      0.38           RANKING
   1     47     51      -20.37      0.35      0.52           RANKING
   1     48     59      -20.36      0.49      0.61           RANKING
   1     49     30      -20.36      0.43      0.39           RANKING
   1     50     66      -20.36      0.42      0.42           RANKING
   1     51     20      -20.35      0.37      0.28           RANKING
   1     52     47      -20.34      0.57      0.45           RANKING
   1     53     53      -20.33      0.38      0.33           RANKING
   1     54     23      -20.32      0.38      0.39           RANKING
   1     55     79      -20.31      0.39      0.37           RANKING
   1     56     19      -20.31      0.35      0.36           RANKING
   1     57     14      -20.31      0.49      0.55           RANKING
   1     58     89      -20.31      0.55      0.39           RANKING
   1     59     83      -20.30      0.60      0.34           RANKING
   1     60     46      -20.29      0.36      0.35           RANKING
   1     61     43      -20.29      0.43      0.37           RANKING
   1     62     10      -20.28      0.62      0.30           RANKING
   1     63     75      -20.28      0.34      0.32           RANKING
   1     64     25      -20.27      0.48      0.44           RANKING
   1     65     32      -20.25      0.55      0.49           RANKING
   1     66     33      -20.25      0.49      0.55           RANKING
   1     67     60      -20.24      0.53      0.42           RANKING
   1     68     52      -20.24      0.30      0.47           RANKING
   1     69     73      -20.23      0.38      0.46           RANKING
   1     70     42      -20.22      0.42      0.39           RANKING
   1     71     15      -20.21      0.54      0.43           RANKING
   1     72     91      -20.20      0.49      0.46           RANKING
   1     73     24      -20.20      0.52      0.26           RANKING
   1     74     97      -20.20      0.55      0.43           RANKING
   1     75     74      -20.20      0.42      0.63           RANKING
   1     76     69      -20.19      0.61      0.44           RANKING
   1     77     72      -20.19      0.37      0.42           RANKING
   1     78     37      -20.19      0.59      0.41           RANKING
   1     79     65      -20.19      0.51      0.44           RANKING
   1     80      8      -20.19      0.50      0.41           RANKING
   1     81     11      -20.17      0.55      0.70           RANKING
   1     82     80      -20.15      0.41      0.46           RANKING
   1     83     81      -20.15      0.65      0.38           RANKING
   1     84     16      -20.14      0.47      0.38           RANKING
   1     85     82      -20.14      0.38      0.35           RANKING
   1     86     40      -20.12      0.61      0.36           RANKING
   1     87      2      -20.12      0.66      0.54           RANKING
   1     88     35      -20.11      0.64      0.57           RANKING
   1     89      9      -20.09      0.54      0.40           RANKING
   1     90     31      -20.07      0.54      0.48           RANKING
   1     91     85      -20.07      0.63      0.51           RANKING
   1     92     86      -20.06      0.62      0.50           RANKING
   1     93     49      -20.06      0.45      0.42           RANKING
   1     94     17      -20.03      0.71      0.40           RANKING
   1     95     63      -20.02      0.75      0.48           RANKING
   1     96     50      -19.84      0.39      0.43           RANKING
   1     97     34      -19.79      0.52      0.39           RANKING
   1     98     39      -19.78      0.35      0.49           RANKING
   1     99      5      -19.50      0.74      0.70           RANKING
   1    100     96      -19.27      0.94      0.69           RANKING
_______________________________________________________________________



	INFORMATION ENTROPY ANALYSIS FOR THIS CLUSTERING
	________________________________________________


Information entropy for this clustering = 0.00  (rmstol = 2.00 Angstrom)

_______________________________________________________________________


	STATISTICAL MECHANICAL ANALYSIS
	_______________________________


Partition function, Q =   103.49            at Temperature, T = 298.15 K
Free energy,        A ~ -2748.81 kcal/mol   at Temperature, T = 298.15 K
Internal energy,    U =   -20.33 kcal/mol   at Temperature, T = 298.15 K
Entropy,            S =     9.15 kcal/mol/K at Temperature, T = 298.15 K

_______________________________________________________________________


	LOWEST ENERGY DOCKED CONFORMATION from EACH CLUSTER
	___________________________________________________



Keeping original residue number (specified in the input PDBQ file) for outputting.

MODEL        1
USER    Run = 1
USER    Cluster Rank = 1
USER    Number of conformations in this cluster = 100
USER  
USER    RMSD from reference structure       = 0.460 A
USER  
USER    Estimated Free Energy of Binding    =  -20.73 kcal/mol  [=(1)+(2)+(3)-(4)]
USER    Estimated Inhibition Constant, Ki   =  642.71 aM (attomolar)  [Temperature = 298.15 K]
USER    
USER    (1) Final Intermolecular Energy     =  -23.11 kcal/mol
USER        vdW + Hbond + desolv Energy     =  -18.63 kcal/mol
USER        Electrostatic Energy            =   -4.49 kcal/mol
USER    (2) Final Total Internal Energy     =   -0.47 kcal/mol
USER    (3) Torsional Free Energy           =   +2.39 kcal/mol
USER    (4) Unbound System's Energy  [=(2)] =   -0.47 kcal/mol
USER    
USER    
USER  
USER    DPF = C:/Users/georg/Desktop/Dock/executables_autodock_tools/receptor.dpf
USER    NEWDPF move	ligand.pdbqt
USER    NEWDPF about	54.495000 78.699000 10.493000
USER    NEWDPF tran0	54.954375 78.906064 10.782995
USER    NEWDPF axisangle0	-0.175625 0.972553 -0.152634 -178.840249
USER    NEWDPF quaternion0	-0.175616 0.972503 -0.152626 -0.010121
USER    NEWDPF dihe0	136.45 28.33 -118.82 171.86 14.67 3.44 -173.22 142.86 
USER  
USER                              x       y       z    vdW   Elec        q     RMS 
ATOM      1  CHA HEM A1501      54.198  81.130  10.473 -0.27 +0.04    +0.038     0.460
ATOM      2  CHB HEM A1501      54.581  77.309   7.575 -0.38 +0.03    +0.038     0.460
ATOM      3  CHC HEM A1501      55.499  74.486  11.378 -0.40 +0.01    +0.038     0.460
ATOM      4  CHD HEM A1501      55.181  78.323  14.274 -0.39 +0.02    +0.038     0.460
ATOM      5  C1A HEM A1501      54.248  80.338   9.330 -0.25 +0.08    +0.079     0.460
ATOM      6  C2A HEM A1501      54.070  80.782   7.944 -0.35 -0.01    -0.006     0.460
ATOM      7  C3A HEM A1501      54.177  79.711   7.171 -0.36 -0.01    -0.007     0.460
ATOM      8  C4A HEM A1501      54.431  78.601   8.039 -0.32 +0.06    +0.079     0.460
ATOM      9  CMA HEM A1501      54.081  79.653   5.677 -0.47 +0.03    +0.032     0.460
ATOM     10  C1B HEM A1501      54.835  76.191   8.349 -0.35 +0.04    +0.079     0.460
ATOM     11  C2B HEM A1501      54.966  74.842   7.812 -0.46 -0.00    -0.003     0.460
ATOM     12  C3B HEM A1501      55.208  74.050   8.888 -0.45 +0.01    +0.015     0.460
ATOM     13  C4B HEM A1501      55.250  74.916  10.063 -0.36 +0.03    +0.083     0.460
ATOM     14  CMB HEM A1501      54.839  74.480   6.358 -0.58 +0.02    +0.033     0.460
ATOM     15  C1C HEM A1501      55.537  75.238  12.521 -0.34 +0.03    +0.079     0.460
ATOM     16  C2C HEM A1501      55.881  74.749  13.828 -0.42 -0.00    -0.003     0.460
ATOM     17  C3C HEM A1501      55.814  75.818  14.662 -0.39 +0.01    +0.015     0.460
ATOM     18  C4C HEM A1501      55.413  76.975  13.838 -0.32 +0.03    +0.083     0.460
ATOM     19  CMC HEM A1501      56.234  73.305  14.118 -0.56 +0.01    +0.033     0.460
ATOM     20  C1D HEM A1501      54.820  79.455  13.501 -0.33 +0.04    +0.079     0.460
ATOM     21  C2D HEM A1501      54.613  80.772  14.021 -0.40 -0.00    -0.007     0.460
ATOM     22  C3D HEM A1501      54.335  81.566  12.955 -0.34 -0.00    -0.006     0.460
ATOM     23  C4D HEM A1501      54.380  80.727  11.773 -0.23 +0.07    +0.079     0.460
ATOM     24  CMD HEM A1501      54.690  81.186  15.437 -0.46 +0.01    +0.032     0.460
ATOM     25  NA  HEM A1501      54.500  78.991   9.343 -0.16 -0.20    -0.246     0.460
ATOM     26  NB  HEM A1501      54.998  76.195   9.713 -0.03 -0.12    -0.246     0.460
ATOM     27  NC  HEM A1501      55.290  76.570  12.572 -0.16 -0.11    -0.246     0.460
ATOM     28  ND  HEM A1501      54.680  79.454  12.142 -0.13 -0.17    -0.246     0.460
ATOM     29 FE   HEM A1501      54.877  77.807  10.964 -0.07 +0.00    +0.000     0.460
ATOM     30  CAD HEM A1501      54.050  83.017  13.053 -0.40 +0.04    +0.039     0.460
ATOM     31  CBD HEM A1501      52.562  83.293  13.272 -0.52 +0.11    +0.102     0.460
ATOM     32  CGD HEM A1501      52.177  84.731  12.978 -0.46 +0.27    +0.186     0.460
ATOM     33  O1D HEM A1501      52.964  85.286  12.181 -0.59 -1.44    -0.647     0.460
ATOM     34  O2D HEM A1501      51.104  85.293  13.476 -0.76 -0.94    -0.647     0.460
ATOM     35  CAA HEM A1501      53.820  82.165   7.453 -0.43 +0.06    +0.039     0.460
ATOM     36  CBA HEM A1501      52.493  82.271   6.728 -0.57 +0.15    +0.102     0.460
ATOM     37  CGA HEM A1501      52.174  83.650   6.218 -0.64 +0.35    +0.186     0.460
ATOM     38  O1A HEM A1501      52.935  84.592   6.538 -1.17 -1.74    -0.647     0.460
ATOM     39  O2A HEM A1501      51.193  83.789   5.459 -1.05 -1.31    -0.647     0.460
ATOM     40  CAC HEM A1501      56.072  75.863  16.107 -0.56 +0.00    +0.001     0.460
ATOM     41  CBC HEM A1501      55.156  75.941  17.084 -0.65 +0.00    +0.000     0.460
ATOM     42  CAB HEM A1501      55.419  72.588   8.994 -0.54 +0.00    +0.001     0.460
ATOM     43  CBB HEM A1501      55.506  71.667   8.056 -0.54 +0.00    +0.000     0.460
TER
ENDMDL


AVSFLD: # AVS field file
AVSFLD: #
AVSFLD: # Created by AutoDock
AVSFLD: #
AVSFLD: ndim=2           # number of dimensions in the field
AVSFLD: nspace=1         # number of physical coordinates
AVSFLD: veclen=7         # vector size
AVSFLD: dim1=43          # atoms
AVSFLD: dim2=1           # conformations
AVSFLD: data=Real       # data type (byte,integer,Real,double)
AVSFLD: field=uniform    # field coordinate layout
AVSFLD: label= x y z vdW Elec q RMS
AVSFLD: variable 1 file = C:/Users/georg/Desktop/Dock/executables_autodock_tools/receptor.dlg.pdb filetype = ascii offset = 5 stride = 12
AVSFLD: variable 2 file = C:/Users/georg/Desktop/Dock/executables_autodock_tools/receptor.dlg.pdb filetype = ascii offset = 6 stride = 12
AVSFLD: variable 3 file = C:/Users/georg/Desktop/Dock/executables_autodock_tools/receptor.dlg.pdb filetype = ascii offset = 7 stride = 12
AVSFLD: variable 4 file = C:/Users/georg/Desktop/Dock/executables_autodock_tools/receptor.dlg.pdb filetype = ascii offset = 8 stride = 12
AVSFLD: variable 5 file = C:/Users/georg/Desktop/Dock/executables_autodock_tools/receptor.dlg.pdb filetype = ascii offset = 9 stride = 12
AVSFLD: variable 6 file = C:/Users/georg/Desktop/Dock/executables_autodock_tools/receptor.dlg.pdb filetype = ascii offset = 10 stride = 12
AVSFLD: variable 7 file = C:/Users/georg/Desktop/Dock/executables_autodock_tools/receptor.dlg.pdb filetype = ascii offset = 11 stride = 12
AVSFLD: # end of file

>>> Closing the docking parameter file (DPF)...
This docking finished at:			5:37 03" p.m., 11/28/2024


________________________________________________________________________________

C:/Users/georg/Desktop/Dock/executables_autodock_tools/autodock4.exe: Successful Completion on "NORA"

Real= 40m 21.26s,  CPU= 6m 11.83s,  System= 2.70s
________________________________________________________________________________

