          AutoDock 4.2 Release 4.2.6   
         (C) 1989-2012 The Scripps Research Institute
        AutoDock comes with ABSOLUTELY NO WARRANTY.
        AutoDock is free software, and you are welcome
        to redistribute it under certain conditions;
        for details type 'autodock4 -C'

                     main.cc  $Revision: 1.213 $

                   Compiled on Jul 18 2014 at 15:34:58


This file was created at:			8:43 41" p.m., 11/25/2024
                   on host:		"NORA"
Current Working Directory = "C:\Users\georg\Desktop\fall2024\4-Computational_Biology\Assignment\executables"

      ________________________________________________________________

                   SETTING UP DEFAULT PARAMETER LIBRARY
      ________________________________________________________________


Random number generator was seeded with values 18356, 1732560221.
Docking parameter file (DPF) used for this docking:		C:/Users/georg/Desktop/fall2024/4-Computational_Biology/Assignment/executables/HEM.dpf
DPF> autodock_parameter_version 4.2       # used by autodock to validate parameter set

	Autodock parameter version 4.2.
DPF> outlev 1                             # diagnostic output level

Output Level = 1  ADT-COMPATIBLE OUTPUT DURING DOCKING.
DPF> intelec                              # calculate internal electrostatics

Electrostatic energies will be calculated for all non-bonds between moving atoms.
DPF> seed pid time                        # seeds for random generator

Random number generator was seeded with values 18356, 1732560221.
DPF> ligand_types A C Fe OA N             # atoms types in ligand

DPF> fld 1w0e.maps.fld                    # grid_data_file

Opening Grid Map Dimensions file:		1w0e.maps.fld
Grid Point Spacing =				0.375 Angstroms

Even Number of User-specified Grid Points =	50 x-points
						50 y-points
						50 z-points

Coordinates of Central Grid Point of Maps =	(58.562, 77.922, 14.185)
Macromolecule file used to create Grid Maps =	1w0e.pdbqt
Grid Parameter file used to create Grid Maps =	C:/Users/georg/Desktop/fall2024/4-Computational_Biology/Assignment/executables/1w0e.gfp
Minimum coordinates in grid = (49.187, 68.547, 4.810)
Maximum coordinates in grid = (67.937, 87.297, 23.560)

DPF> map 1w0e.A.map                       # atom-specific affinity map

DPF> map 1w0e.C.map                       # atom-specific affinity map

DPF> map 1w0e.Fe.map                      # atom-specific affinity map

DPF> map 1w0e.OA.map                      # atom-specific affinity map

DPF> map 1w0e.N.map                       # atom-specific affinity map

DPF> elecmap 1w0e.e.map                   # electrostatics map

DPF> desolvmap 1w0e.d.map                 # desolvation map

DPF> move HEM.pdbqt                       # small molecule

1,4-interactions will be _ignored_ in the non-bonded internal energy calculation.

Ligand PDBQT file = "HEM.pdbqt"

INPUT LIGAND PDBQT FILE:
________________________

INPUT-LIGAND-PDBQT: REMARK  8 active torsions:
INPUT-LIGAND-PDBQT: REMARK  status: ('A' for Active; 'I' for Inactive)
INPUT-LIGAND-PDBQT: REMARK    1  A    between atoms: C2A_3624  and  CAA_3628 
INPUT-LIGAND-PDBQT: REMARK    2  A    between atoms: CAA_3628  and  CBA_3629 
INPUT-LIGAND-PDBQT: REMARK    3  A    between atoms: CBA_3629  and  CGA_3630 
INPUT-LIGAND-PDBQT: REMARK    4  A    between atoms: C3B_3635  and  CAB_3638 
INPUT-LIGAND-PDBQT: REMARK    5  A    between atoms: C3C_3642  and  CAC_3645 
INPUT-LIGAND-PDBQT: REMARK    6  A    between atoms: C3D_3649  and  CAD_3652 
INPUT-LIGAND-PDBQT: REMARK    7  A    between atoms: CAD_3652  and  CBD_3653 
INPUT-LIGAND-PDBQT: REMARK    8  A    between atoms: CBD_3653  and  CGD_3654 
INPUT-LIGAND-PDBQT: ROOT
INPUT-LIGAND-PDBQT: HETATM    1  CHA HEM A1501      54.428  81.031  10.081  1.00 32.49     0.038 A 
INPUT-LIGAND-PDBQT: HETATM    2  CHB HEM A1501      55.287  78.365  13.992  1.00 33.03     0.038 A 
INPUT-LIGAND-PDBQT: HETATM    3  CHC HEM A1501      55.528  74.394  11.262  1.00 31.60     0.038 A 
INPUT-LIGAND-PDBQT: HETATM    4  CHD HEM A1501      54.602  77.054   7.353  1.00 32.68     0.038 A 
INPUT-LIGAND-PDBQT: HETATM    5  C1A HEM A1501      54.615  80.651  11.406  1.00 34.41     0.079 A 
INPUT-LIGAND-PDBQT: HETATM    6  C2A HEM A1501      54.582  81.524  12.584  1.00 36.00    -0.006 A 
INPUT-LIGAND-PDBQT: HETATM    7  C3A HEM A1501      54.824  80.765  13.643  1.00 32.35    -0.007 A 
INPUT-LIGAND-PDBQT: HETATM    8  C4A HEM A1501      54.998  79.429  13.160  1.00 32.21     0.079 A 
INPUT-LIGAND-PDBQT: HETATM    9  CMA HEM A1501      54.884  81.195  15.077  1.00 32.95     0.032 C 
INPUT-LIGAND-PDBQT: HETATM   10  C1B HEM A1501      55.460  77.050  13.601  1.00 34.74     0.079 A 
INPUT-LIGAND-PDBQT: HETATM   11  C2B HEM A1501      55.784  75.964  14.518  1.00 35.37    -0.003 A 
INPUT-LIGAND-PDBQT: HETATM   12  C3B HEM A1501      55.866  74.852  13.742  1.00 34.85     0.015 A 
INPUT-LIGAND-PDBQT: HETATM   13  C4B HEM A1501      55.569  75.257  12.371  1.00 33.67     0.083 A 
INPUT-LIGAND-PDBQT: HETATM   14  CMB HEM A1501      55.979  76.121  16.001  1.00 34.31     0.033 C 
INPUT-LIGAND-PDBQT: HETATM   15  C1C HEM A1501      55.272  74.709   9.955  1.00 32.38     0.079 A 
INPUT-LIGAND-PDBQT: HETATM   16  C2C HEM A1501      55.162  73.764   8.878  1.00 31.12    -0.003 A 
INPUT-LIGAND-PDBQT: HETATM   17  C3C HEM A1501      54.884  74.489   7.764  1.00 32.72     0.015 A 
INPUT-LIGAND-PDBQT: HETATM   18  C4C HEM A1501      54.834  75.904   8.181  1.00 33.62     0.083 A 
INPUT-LIGAND-PDBQT: HETATM   19  CMC HEM A1501      55.338  72.269   9.051  1.00 29.89     0.033 C 
INPUT-LIGAND-PDBQT: HETATM   20  C1D HEM A1501      54.524  78.417   7.731  1.00 33.95     0.079 A 
INPUT-LIGAND-PDBQT: HETATM   21  C2D HEM A1501      54.282  79.506   6.834  1.00 33.11    -0.007 A 
INPUT-LIGAND-PDBQT: HETATM   22  C3D HEM A1501      54.233  80.628   7.597  1.00 34.25    -0.006 A 
INPUT-LIGAND-PDBQT: HETATM   23  C4D HEM A1501      54.440  80.220   8.973  1.00 33.58     0.079 A 
INPUT-LIGAND-PDBQT: HETATM   24  CMD HEM A1501      54.115  79.423   5.369  1.00 30.36     0.032 C 
INPUT-LIGAND-PDBQT: HETATM   25  NA  HEM A1501      54.843  79.361  11.807  1.00 32.28    -0.246 N 
INPUT-LIGAND-PDBQT: HETATM   26  NB  HEM A1501      55.352  76.588  12.311  1.00 33.15    -0.246 N 
INPUT-LIGAND-PDBQT: HETATM   27  NC  HEM A1501      55.046  75.965   9.497  1.00 33.61    -0.246 N 
INPUT-LIGAND-PDBQT: HETATM   28  ND  HEM A1501      54.610  78.872   9.017  1.00 33.81    -0.246 N 
INPUT-LIGAND-PDBQT: HETATM   29 FE   HEM A1501      54.952  77.691  10.637  1.00 27.43     0.000 Fe
INPUT-LIGAND-PDBQT: ENDROOT
INPUT-LIGAND-PDBQT: BRANCH   6  30
INPUT-LIGAND-PDBQT: HETATM   30  CAA HEM A1501      54.323  82.989  12.628  1.00 40.53     0.039 C 
INPUT-LIGAND-PDBQT: BRANCH  30  31
INPUT-LIGAND-PDBQT: HETATM   31  CBA HEM A1501      52.883  83.293  12.993  1.00 47.08     0.102 C 
INPUT-LIGAND-PDBQT: BRANCH  31  32
INPUT-LIGAND-PDBQT: HETATM   32  CGA HEM A1501      52.579  84.758  13.147  1.00 50.37     0.186 C 
INPUT-LIGAND-PDBQT: HETATM   33  O1A HEM A1501      51.416  85.093  13.470  1.00 52.41    -0.647 OA
INPUT-LIGAND-PDBQT: HETATM   34  O2A HEM A1501      53.509  85.576  12.992  1.00 52.71    -0.647 OA
INPUT-LIGAND-PDBQT: ENDBRANCH  31  32
INPUT-LIGAND-PDBQT: ENDBRANCH  30  31
INPUT-LIGAND-PDBQT: ENDBRANCH   6  30
INPUT-LIGAND-PDBQT: BRANCH  22  35
INPUT-LIGAND-PDBQT: HETATM   35  CAD HEM A1501      54.004  81.989   7.057  1.00 36.17     0.039 C 
INPUT-LIGAND-PDBQT: BRANCH  35  36
INPUT-LIGAND-PDBQT: HETATM   36  CBD HEM A1501      52.516  82.292   6.884  1.00 38.78     0.102 C 
INPUT-LIGAND-PDBQT: BRANCH  36  37
INPUT-LIGAND-PDBQT: HETATM   37  CGD HEM A1501      52.256  83.662   6.286  1.00 41.58     0.186 C 
INPUT-LIGAND-PDBQT: HETATM   38  O1D HEM A1501      51.281  83.668   5.503  1.00 42.40    -0.647 OA
INPUT-LIGAND-PDBQT: HETATM   39  O2D HEM A1501      52.957  84.721   6.608  1.00 43.17    -0.647 OA
INPUT-LIGAND-PDBQT: ENDBRANCH  36  37
INPUT-LIGAND-PDBQT: ENDBRANCH  35  36
INPUT-LIGAND-PDBQT: ENDBRANCH  22  35
INPUT-LIGAND-PDBQT: BRANCH  17  40
INPUT-LIGAND-PDBQT: HETATM   40  CAC HEM A1501      54.676  74.008   6.393  1.00 35.84     0.001 C 
INPUT-LIGAND-PDBQT: HETATM   41  CBC HEM A1501      53.566  74.148   5.652  1.00 39.50     0.000 C 
INPUT-LIGAND-PDBQT: ENDBRANCH  17  40
INPUT-LIGAND-PDBQT: BRANCH  12  42
INPUT-LIGAND-PDBQT: HETATM   42  CAB HEM A1501      56.176  73.445  14.085  1.00 34.32     0.001 C 
INPUT-LIGAND-PDBQT: HETATM   43  CBB HEM A1501      56.843  72.941  15.104  1.00 37.81     0.000 C 
INPUT-LIGAND-PDBQT: ENDBRANCH  12  42
INPUT-LIGAND-PDBQT: TORSDOF 8
________________________________________________________________________________

Total charge on ligand                               =	-1.996 e
REMARK  8 active torsions:
REMARK  status: ('A' for Active; 'I' for Inactive)
REMARK    1  A    between atoms: C2A_3624  and  CAA_3628 
REMARK    2  A    between atoms: CAA_3628  and  CBA_3629 
REMARK    3  A    between atoms: CBA_3629  and  CGA_3630 
REMARK    4  A    between atoms: C3B_3635  and  CAB_3638 
REMARK    5  A    between atoms: C3C_3642  and  CAC_3645 
REMARK    6  A    between atoms: C3D_3649  and  CAD_3652 
REMARK    7  A    between atoms: CAD_3652  and  CBD_3653 
REMARK    8  A    between atoms: CBD_3653  and  CGD_3654 


Number of Rotatable Bonds in Small Molecule =	8 torsions
Number of atoms in ligand:  43

Number of non-hydrogen atoms in ligand:  43

Number of vibrational degrees of freedom of ligand:  123


Number of torsional degrees of freedom = 8
Estimated loss of torsional free energy upon binding = +2.3864 kcal/mol


DPF> about 54.495 78.699 10.493            # small molecule center

Small molecule center of rotation =	(+54.495, +78.699, +10.493)

DPF> tran0 random                         # initial coordinates/A or random

Initial translation =			(60.310, 72.861, 14.856) Angstroms
DPF> quaternion0 random                   # initial orientation

Each run will begin with a new, random initial orientation.
Initial quaternion,  (x,y,z,w) =	( 0.567, 0.199, -0.431, -0.673 ),
DPF> dihe0 random                         # initial dihedrals (relative) or random

DPF> torsdof 8                            # torsional degrees of freedom

Number of torsional degrees of freedom = 8
Free energy coefficient for torsional degrees of freedom = 0.2983, the factory default value.

Estimated loss of torsional free energy upon binding = +2.3864 kcal/mol

DPF> rmstol 2.0                           # cluster_tolerance/A

Maximum RMS tolerance for conformational cluster analysis = 2.00 Angstroms
DPF> extnrg 1000.0                        # external grid energy

External grid energy (beyond grid map walls) = 1000.00

DPF> e0max 0.0 10000                      # max initial energy; max number of retries

Using user-specified maximum number of retries for simanneal initialization, 10000 retries.
If the simanneal initial energy is greater than e0max, 0.000,
then a new, random initial state will be created.

DPF> ga_pop_size 150                      # number of individuals in population

A population of 150 individuals will be used
DPF> ga_num_evals 2500000                 # maximum number of energy evaluations

There will be at most 2500000 function evaluations used.
DPF> ga_num_generations 27000             # maximum number of generations

The GA will run for at most 27000 generations.
DPF> ga_elitism 1                         # number of top individuals to survive to next generation

The 1 best will be preserved each GA generation.
DPF> ga_mutation_rate 0.02                # rate of gene mutation

The mutation rate is 0.020000.
DPF> ga_crossover_rate 0.8                # rate of crossover

The crossover rate is 0.800000.
DPF> ga_window_size 10                    # 

The GA's selection window is 10 generations.
DPF> ga_cauchy_alpha 0.0                  # Alpha parameter of Cauchy distribution

The alpha parameter (for the Cauchy distribution) is being set to 0.000000.
DPF> ga_cauchy_beta 1.0                   # Beta parameter Cauchy distribution

The beta parameter (for the Cauchy distribution) is being set to 1.000000.
DPF> set_ga                               # set the above parameters for GA or LGA

DPF> sw_max_its 300                       # iterations of Solis & Wets local search

Solis & Wets algorithms will perform at most 300 iterations.
DPF> sw_max_succ 4                        # consecutive successes before changing rho

Solis & Wets algorithms expand rho every 4 in a row successes.
DPF> sw_max_fail 4                        # consecutive failures before changing rho

Solis & Wets algorithms contract rho every 4 in a row failures.
DPF> sw_rho 1.0                           # size of local search space to sample

rho is set to 1.000000.
DPF> sw_lb_rho 0.01                       # lower bound on rho

rho will never get smaller than 0.010000.
DPF> ls_search_freq 0.06                  # probability of performing local search on individual

Local search will be performed with frequency 0.060000.
DPF> set_psw1                             # set the above pseudo-Solis & Wets parameters

Creating a new Local Search object using the pseudo-Solis-Wets algorithm (pSW1) with the current settings.

DPF> unbound_model bound                  # state of unbound ligand

DPF> ga_run 100                           # do this many hybrid GA-LS runs

centering ligand on specified point: 54.495 78.699 10.493
Furthest true ligand atom from "about" center is 7.741 Angstroms (maxrad).
Number of requested GA dockings = 100 runs
Unbound model to be used is 'same as bound' [AutoDock 4.2 default].

	BEGINNING GENETIC ALGORITHM DOCKING 1 of 100
Run: 1 Seed: 684421141 1302711429 [ Run 1 of 100 GA/GALS ]
Beginning LAMARCKIAN GENETIC ALGORITHM (LGA), with a maximum of 2500000 energy evaluations.

Final-Value: -22.958


	FINAL GENETIC ALGORITHM DOCKED STATE
	_______________________________________________


Detailed state:  trans 54.858 78.948 10.693 quatxyzw -0.177813 0.975646 -0.127310 0.017028 center 54.495 78.699 10.493 ntor 8 120.5133 -94.7328 21.0856 53.7742 6.8131 29.8119 124.2008 -174.1594
State:	 54.858  78.948  10.693  -0.178  0.976 -0.127 178.049    120.51  -94.73   21.09   53.77    6.81   29.81  124.20 -174.16

DOCKED: MODEL        1
DOCKED: USER    Run = 1
DOCKED: USER    DPF = C:/Users/georg/Desktop/fall2024/4-Computational_Biology/Assignment/executables/HEM.dpf
DOCKED: USER  
DOCKED: USER    Estimated Free Energy of Binding    =  -20.19 kcal/mol  [=(1)+(2)+(3)-(4)]
DOCKED: USER    Estimated Inhibition Constant, Ki   =    1.58 fM (femtomolar)  [Temperature = 298.15 K]
DOCKED: USER    
DOCKED: USER    (1) Final Intermolecular Energy     =  -22.58 kcal/mol
DOCKED: USER        vdW + Hbond + desolv Energy     =  -18.17 kcal/mol
DOCKED: USER        Electrostatic Energy            =   -4.41 kcal/mol
DOCKED: USER    (2) Final Total Internal Energy     =   -0.38 kcal/mol
DOCKED: USER    (3) Torsional Free Energy           =   +2.39 kcal/mol
DOCKED: USER    (4) Unbound System's Energy  [=(2)] =   -0.38 kcal/mol
DOCKED: USER    
DOCKED: USER    
DOCKED: USER    NEWDPF move HEM.pdbqt
DOCKED: USER    NEWDPF about 54.495000 78.699000 10.493000
DOCKED: USER    NEWDPF tran0 54.858321 78.948031 10.693065
DOCKED: USER    NEWDPF quaternion0 -0.177813 0.975646 -0.127310 0.017028
DOCKED: USER    NEWDPF axisangle0 -0.177839 0.975787 -0.127328 178.048638
DOCKED: USER    NEWDPF quat0 -0.177839 0.975787 -0.127328 178.048638
DOCKED: USER    NEWDPF dihe0 120.51 -94.73 21.09 53.77 6.81 29.81 124.20 -174.16 
DOCKED: USER  keepresnum = 1 
DOCKED: USER  
DOCKED: REMARK  8 active torsions:
DOCKED: REMARK  status: ('A' for Active; 'I' for Inactive)
DOCKED: REMARK    1  A    between atoms: C2A_3624  and  CAA_3628 
DOCKED: REMARK    2  A    between atoms: CAA_3628  and  CBA_3629 
DOCKED: REMARK    3  A    between atoms: CBA_3629  and  CGA_3630 
DOCKED: REMARK    4  A    between atoms: C3B_3635  and  CAB_3638 
DOCKED: REMARK    5  A    between atoms: C3C_3642  and  CAC_3645 
DOCKED: REMARK    6  A    between atoms: C3D_3649  and  CAD_3652 
DOCKED: REMARK    7  A    between atoms: CAD_3652  and  CBD_3653 
DOCKED: REMARK    8  A    between atoms: CBD_3653  and  CGD_3654 
DOCKED: USER                              x       y       z     vdW  Elec       q    Type
DOCKED: USER                           _______ _______ _______ _____ _____    ______ ____
DOCKED: ROOT
DOCKED: ATOM      1  CHA HEM A1501      54.097  81.185  10.521 -0.28 +0.04    +0.038 A 
DOCKED: ATOM      2  CHB HEM A1501      54.276  77.484   7.453 -0.41 +0.03    +0.038 A 
DOCKED: ATOM      3  CHC HEM A1501      55.413  74.505  11.074 -0.41 +0.01    +0.038 A 
DOCKED: ATOM      4  CHD HEM A1501      55.298  78.223  14.137 -0.38 +0.02    +0.038 A 
DOCKED: ATOM      5  C1A HEM A1501      54.071  80.440   9.347 -0.26 +0.08    +0.079 A 
DOCKED: ATOM      6  C2A HEM A1501      53.810  80.941   7.993 -0.38 -0.01    -0.006 A 
DOCKED: ATOM      7  C3A HEM A1501      53.862  79.902   7.172 -0.38 -0.01    -0.007 A 
DOCKED: ATOM      8  C4A HEM A1501      54.163  78.757   7.977 -0.34 +0.07    +0.079 A 
DOCKED: ATOM      9  CMA HEM A1501      53.673  79.905   5.686 -0.46 +0.03    +0.032 C 
DOCKED: ATOM     10  C1B HEM A1501      54.572  76.335   8.163 -0.37 +0.05    +0.079 A 
DOCKED: ATOM     11  C2B HEM A1501      54.661  75.009   7.565 -0.48 -0.00    -0.003 A 
DOCKED: ATOM     12  C3B HEM A1501      54.965  74.172   8.591 -0.45 +0.01    +0.015 A 
DOCKED: ATOM     13  C4B HEM A1501      55.085  74.989   9.796 -0.36 +0.03    +0.083 A 
DOCKED: ATOM     14  CMB HEM A1501      54.441  74.707   6.108 -0.60 +0.02    +0.033 C 
DOCKED: ATOM     15  C1C HEM A1501      55.526  75.210  12.241 -0.35 +0.03    +0.079 A 
DOCKED: ATOM     16  C2C HEM A1501      55.948  74.668  13.503 -0.43 -0.00    -0.003 A 
DOCKED: ATOM     17  C3C HEM A1501      55.940  75.702  14.383 -0.40 +0.01    +0.015 A 
DOCKED: ATOM     18  C4C HEM A1501      55.495  76.893  13.633 -0.31 +0.03    +0.083 A 
DOCKED: ATOM     19  CMC HEM A1501      56.311  73.211  13.712 -0.53 +0.01    +0.033 C 
DOCKED: ATOM     20  C1D HEM A1501      54.897  79.386  13.435 -0.32 +0.04    +0.079 A 
DOCKED: ATOM     21  C2D HEM A1501      54.730  80.682  14.019 -0.39 -0.00    -0.007 A 
DOCKED: ATOM     22  C3D HEM A1501      54.391  81.519  13.005 -0.34 -0.00    -0.006 A 
DOCKED: ATOM     23  C4D HEM A1501      54.357  80.729  11.790 -0.23 +0.07    +0.079 A 
DOCKED: ATOM     24  CMD HEM A1501      54.898  81.037  15.443 -0.42 +0.01    +0.032 C 
DOCKED: ATOM     25  NA  HEM A1501      54.316  79.093   9.289 -0.18 -0.21    -0.246 N 
DOCKED: ATOM     26  NB  HEM A1501      54.820  76.283   9.514 -0.02 -0.12    -0.246 N 
DOCKED: ATOM     27  NC  HEM A1501      55.291  76.540  12.362 -0.14 -0.11    -0.246 N 
DOCKED: ATOM     28  ND  HEM A1501      54.672  79.441  12.087 -0.13 -0.17    -0.246 N 
DOCKED: ATOM     29 FE   HEM A1501      54.786  77.843  10.834 -0.07 +0.00    +0.000 Fe
DOCKED: ENDROOT
DOCKED: BRANCH   6  30
DOCKED: ATOM     30  CAA HEM A1501      53.538  82.343   7.575 -0.42 +0.06    +0.039 C 
DOCKED: BRANCH  30  31
DOCKED: ATOM     31  CBA HEM A1501      52.414  82.418   6.560 -0.59 +0.16    +0.102 C 
DOCKED: BRANCH  31  32
DOCKED: ATOM     32  CGA HEM A1501      52.135  83.804   6.046 -0.65 +0.36    +0.186 C 
DOCKED: ATOM     33  O1A HEM A1501      51.005  84.041   5.560 -0.90 -1.38    -0.647 OA
DOCKED: ATOM     34  O2A HEM A1501      53.023  84.672   6.168 -1.15 -1.67    -0.647 OA
DOCKED: ENDBRANCH  31  32
DOCKED: ENDBRANCH  30  31
DOCKED: ENDBRANCH   6  30
DOCKED: BRANCH  22  35
DOCKED: ATOM     35  CAD HEM A1501      54.121  82.966  13.180 -0.40 +0.04    +0.039 C 
DOCKED: BRANCH  35  36
DOCKED: ATOM     36  CBD HEM A1501      52.647  83.240  13.480 -0.51 +0.10    +0.102 C 
DOCKED: BRANCH  36  37
DOCKED: ATOM     37  CGD HEM A1501      52.168  84.571  12.931 -0.46 +0.26    +0.186 C 
DOCKED: ATOM     38  O1D HEM A1501      51.095  84.947  13.451 -0.49 -0.86    -0.647 OA
DOCKED: ATOM     39  O2D HEM A1501      52.847  85.258  12.046 -0.48 -1.43    -0.647 OA
DOCKED: ENDBRANCH  36  37
DOCKED: ENDBRANCH  35  36
DOCKED: ENDBRANCH  22  35
DOCKED: BRANCH  17  40
DOCKED: ATOM     40  CAC HEM A1501      56.287  75.687  15.809 -0.54 +0.00    +0.001 C 
DOCKED: ATOM     41  CBC HEM A1501      55.489  76.021  16.834 -0.65 +0.00    +0.000 C 
DOCKED: ENDBRANCH  17  40
DOCKED: BRANCH  12  42
DOCKED: ATOM     42  CAB HEM A1501      55.174  72.707   8.625 -0.56 +0.00    +0.001 C 
DOCKED: ATOM     43  CBB HEM A1501      54.518  71.765   9.274 -0.54 +0.00    +0.000 C 
DOCKED: ENDBRANCH  12  42
DOCKED: TORSDOF 8
DOCKED: TER
DOCKED: ENDMDL
________________________________________________________________________________


	BEGINNING GENETIC ALGORITHM DOCKING 2 of 100
Run: 2 Seed: 1273973385 494046840 [ Run 2 of 100 GA/GALS ]
Beginning LAMARCKIAN GENETIC ALGORITHM (LGA), with a maximum of 2500000 energy evaluations.

Final-Value: -21.065


	FINAL GENETIC ALGORITHM DOCKED STATE
	_______________________________________________


Detailed state:  trans 54.304 78.551 10.387 quatxyzw -0.087032 0.000515 0.071948 -0.993604 center 54.495 78.699 10.493 ntor 8 -6.0002 146.1511 -178.5497 -86.7664 -43.1357 21.9652 22.5229 128.9798
State:	 54.304  78.551  10.387  -0.771  0.005  0.637 -12.968     -6.00  146.15 -178.55  -86.77  -43.14   21.97   22.52  128.98

DOCKED: MODEL        2
DOCKED: USER    Run = 2
DOCKED: USER    DPF = C:/Users/georg/Desktop/fall2024/4-Computational_Biology/Assignment/executables/HEM.dpf
DOCKED: USER  
DOCKED: USER    Estimated Free Energy of Binding    =  -18.13 kcal/mol  [=(1)+(2)+(3)-(4)]
DOCKED: USER    Estimated Inhibition Constant, Ki   =   51.62 fM (femtomolar)  [Temperature = 298.15 K]
DOCKED: USER    
DOCKED: USER    (1) Final Intermolecular Energy     =  -20.51 kcal/mol
DOCKED: USER        vdW + Hbond + desolv Energy     =  -16.38 kcal/mol
DOCKED: USER        Electrostatic Energy            =   -4.14 kcal/mol
DOCKED: USER    (2) Final Total Internal Energy     =   -0.55 kcal/mol
DOCKED: USER    (3) Torsional Free Energy           =   +2.39 kcal/mol
DOCKED: USER    (4) Unbound System's Energy  [=(2)] =   -0.55 kcal/mol
DOCKED: USER    
DOCKED: USER    
DOCKED: USER    NEWDPF move HEM.pdbqt
DOCKED: USER    NEWDPF about 54.495000 78.699000 10.493000
DOCKED: USER    NEWDPF tran0 54.303943 78.551457 10.387053
DOCKED: USER    NEWDPF quaternion0 -0.087032 0.000515 0.071948 -0.993604
DOCKED: USER    NEWDPF axisangle0 -0.770728 0.004561 0.637148 -12.967536
DOCKED: USER    NEWDPF quat0 -0.770728 0.004561 0.637148 -12.967536
DOCKED: USER    NEWDPF dihe0 -6.00 146.15 -178.55 -86.77 -43.14 21.97 22.52 128.98 
DOCKED: USER  keepresnum = 1 
DOCKED: USER  
DOCKED: REMARK  8 active torsions:
DOCKED: REMARK  status: ('A' for Active; 'I' for Inactive)
DOCKED: REMARK    1  A    between atoms: C2A_3624  and  CAA_3628 
DOCKED: REMARK    2  A    between atoms: CAA_3628  and  CBA_3629 
DOCKED: REMARK    3  A    between atoms: CBA_3629  and  CGA_3630 
DOCKED: REMARK    4  A    between atoms: C3B_3635  and  CAB_3638 
DOCKED: REMARK    5  A    between atoms: C3C_3642  and  CAC_3645 
DOCKED: REMARK    6  A    between atoms: C3D_3649  and  CAD_3652 
DOCKED: REMARK    7  A    between atoms: CAD_3652  and  CBD_3653 
DOCKED: REMARK    8  A    between atoms: CBD_3653  and  CGD_3654 
DOCKED: USER                              x       y       z     vdW  Elec       q    Type
DOCKED: USER                           _______ _______ _______ _____ _____    ______ ____
DOCKED: ROOT
DOCKED: ATOM      1  CHA HEM A1501      53.909  80.743   9.579 -0.24 +0.04    +0.038 A 
DOCKED: ATOM      2  CHB HEM A1501      55.095  78.945  13.880 -0.37 +0.02    +0.038 A 
DOCKED: ATOM      3  CHC HEM A1501      55.933  74.637  11.875 -0.36 +0.01    +0.038 A 
DOCKED: ATOM      4  CHD HEM A1501      54.681  76.420   7.578 -0.41 +0.02    +0.038 A 
DOCKED: ATOM      5  C1A HEM A1501      54.133  80.629  10.947 -0.15 +0.07    +0.079 A 
DOCKED: ATOM      6  C2A HEM A1501      53.962  81.679  11.957 -0.35 -0.01    -0.006 A 
DOCKED: ATOM      7  C3A HEM A1501      54.298  81.157  13.128 -0.36 -0.01    -0.007 A 
DOCKED: ATOM      8  C4A HEM A1501      54.667  79.796  12.881 -0.28 +0.05    +0.079 A 
DOCKED: ATOM      9  CMA HEM A1501      54.279  81.833  14.465 -0.44 +0.02    +0.032 C 
DOCKED: ATOM     10  C1B HEM A1501      55.459  77.620  13.720 -0.32 +0.03    +0.079 A 
DOCKED: ATOM     11  C2B HEM A1501      55.925  76.767  14.806 -0.42 -0.00    -0.003 A 
DOCKED: ATOM     12  C3B HEM A1501      56.174  75.561  14.233 -0.40 +0.01    +0.015 A 
DOCKED: ATOM     13  C4B HEM A1501      55.838  75.676  12.817 -0.33 +0.03    +0.083 A 
DOCKED: ATOM     14  CMB HEM A1501      56.078  77.204  16.237 -0.47 +0.01    +0.033 C 
DOCKED: ATOM     15  C1C HEM A1501      55.650  74.681  10.536 -0.37 +0.03    +0.079 A 
DOCKED: ATOM     16  C2C HEM A1501      55.689  73.558   9.641 -0.43 -0.00    -0.003 A 
DOCKED: ATOM     17  C3C HEM A1501      55.323  74.032   8.422 -0.45 +0.01    +0.015 A 
DOCKED: ATOM     18  C4C HEM A1501      55.066  75.476   8.589 -0.37 +0.04    +0.083 A 
DOCKED: ATOM     19  CMC HEM A1501      56.075  72.156  10.067 -0.48 +0.01    +0.033 C 
DOCKED: ATOM     20  C1D HEM A1501      54.405  77.803   7.715 -0.36 +0.06    +0.079 A 
DOCKED: ATOM     21  C2D HEM A1501      54.020  78.674   6.647 -0.36 -0.01    -0.007 A 
DOCKED: ATOM     22  C3D HEM A1501      53.802  79.893   7.205 -0.39 -0.01    -0.006 A 
DOCKED: ATOM     23  C4D HEM A1501      54.049  79.763   8.628 -0.30 +0.08    +0.079 A 
DOCKED: ATOM     24  CMD HEM A1501      53.883  78.316   5.221 -0.07 +0.02    +0.032 C 
DOCKED: ATOM     25  NA  HEM A1501      54.539  79.474  11.562 -0.08 -0.18    -0.246 N 
DOCKED: ATOM     26  NB  HEM A1501      55.433  76.931  12.531 -0.16 -0.11    -0.246 N 
DOCKED: ATOM     27  NC  HEM A1501      55.252  75.794   9.871 -0.21 -0.11    -0.246 N 
DOCKED: ATOM     28  ND  HEM A1501      54.410  78.481   8.902 -0.19 -0.19    -0.246 N 
DOCKED: ATOM     29 FE   HEM A1501      54.899  77.659  10.697 -0.07 +0.00    +0.000 Fe
DOCKED: ENDROOT
DOCKED: BRANCH   6  30
DOCKED: ATOM     30  CAA HEM A1501      53.495  83.077  11.750 -0.30 +0.05    +0.039 C 
DOCKED: BRANCH  30  31
DOCKED: ATOM     31  CBA HEM A1501      52.247  83.376  12.558 -0.28 +0.12    +0.102 C 
DOCKED: BRANCH  31  32
DOCKED: ATOM     32  CGA HEM A1501      52.298  84.672  13.320 -0.50 +0.25    +0.186 C 
DOCKED: ATOM     33  O1A HEM A1501      53.311  85.398  13.190 -0.59 -1.22    -0.647 OA
DOCKED: ATOM     34  O2A HEM A1501      51.311  84.992  14.013 -0.44 -0.84    -0.647 OA
DOCKED: ENDBRANCH  31  32
DOCKED: ENDBRANCH  30  31
DOCKED: ENDBRANCH   6  30
DOCKED: BRANCH  22  35
DOCKED: ATOM     35  CAD HEM A1501      53.387  81.093   6.441 -0.49 +0.04    +0.039 C 
DOCKED: BRANCH  35  36
DOCKED: ATOM     36  CBD HEM A1501      53.972  82.376   7.030 -0.39 +0.15    +0.102 C 
DOCKED: BRANCH  36  37
DOCKED: ATOM     37  CGD HEM A1501      53.160  83.610   6.685 -0.31 +0.39    +0.186 C 
DOCKED: ATOM     38  O1D HEM A1501      51.966  83.516   7.042 -0.61 -1.29    -0.647 OA
DOCKED: ATOM     39  O2D HEM A1501      53.686  84.670   6.121 -0.92 -1.75    -0.647 OA
DOCKED: ENDBRANCH  36  37
DOCKED: ENDBRANCH  35  36
DOCKED: ENDBRANCH  22  35
DOCKED: BRANCH  17  40
DOCKED: ATOM     40  CAC HEM A1501      55.201  73.297   7.158 -0.56 +0.00    +0.001 C 
DOCKED: ATOM     41  CBC HEM A1501      54.072  73.051   6.476 -0.62 +0.00    +0.000 C 
DOCKED: ENDBRANCH  17  40
DOCKED: BRANCH  12  42
DOCKED: ATOM     42  CAB HEM A1501      56.678  74.293  14.810 -0.57 +0.00    +0.001 C 
DOCKED: ATOM     43  CBB HEM A1501      56.144  73.088  14.823 -0.60 +0.00    +0.000 C 
DOCKED: ENDBRANCH  12  42
DOCKED: TORSDOF 8
DOCKED: TER
DOCKED: ENDMDL
________________________________________________________________________________


	BEGINNING GENETIC ALGORITHM DOCKING 3 of 100
Run: 3 Seed: 1150561958 421685685 [ Run 3 of 100 GA/GALS ]
Beginning LAMARCKIAN GENETIC ALGORITHM (LGA), with a maximum of 2500000 energy evaluations.

Final-Value: -23.393


	FINAL GENETIC ALGORITHM DOCKED STATE
	_______________________________________________


Detailed state:  trans 54.375 78.759 10.595 quatxyzw -0.009838 0.003675 -0.013214 0.999858 center 54.495 78.699 10.493 ntor 8 10.1770 -16.1044 -159.2827 -145.1872 16.4478 -10.4263 -2.7439 -21.1296
State:	 54.375  78.759  10.595  -0.583  0.218 -0.783  1.934     10.18  -16.10 -159.28 -145.19   16.45  -10.43   -2.74  -21.13

DOCKED: MODEL        3
DOCKED: USER    Run = 3
DOCKED: USER    DPF = C:/Users/georg/Desktop/fall2024/4-Computational_Biology/Assignment/executables/HEM.dpf
DOCKED: USER  
DOCKED: USER    Estimated Free Energy of Binding    =  -20.52 kcal/mol  [=(1)+(2)+(3)-(4)]
DOCKED: USER    Estimated Inhibition Constant, Ki   =  906.50 aM (attomolar)  [Temperature = 298.15 K]
DOCKED: USER    
DOCKED: USER    (1) Final Intermolecular Energy     =  -22.91 kcal/mol
DOCKED: USER        vdW + Hbond + desolv Energy     =  -18.39 kcal/mol
DOCKED: USER        Electrostatic Energy            =   -4.52 kcal/mol
DOCKED: USER    (2) Final Total Internal Energy     =   -0.48 kcal/mol
DOCKED: USER    (3) Torsional Free Energy           =   +2.39 kcal/mol
DOCKED: USER    (4) Unbound System's Energy  [=(2)] =   -0.48 kcal/mol
DOCKED: USER    
DOCKED: USER    
DOCKED: USER    NEWDPF move HEM.pdbqt
DOCKED: USER    NEWDPF about 54.495000 78.699000 10.493000
DOCKED: USER    NEWDPF tran0 54.374589 78.759409 10.595283
DOCKED: USER    NEWDPF quaternion0 -0.009838 0.003675 -0.013214 0.999858
DOCKED: USER    NEWDPF axisangle0 -0.582849 0.217716 -0.782871 1.934236
DOCKED: USER    NEWDPF quat0 -0.582849 0.217716 -0.782871 1.934236
DOCKED: USER    NEWDPF dihe0 10.18 -16.10 -159.28 -145.19 16.45 -10.43 -2.74 -21.13 
DOCKED: USER  keepresnum = 1 
DOCKED: USER  
DOCKED: REMARK  8 active torsions:
DOCKED: REMARK  status: ('A' for Active; 'I' for Inactive)
DOCKED: REMARK    1  A    between atoms: C2A_3624  and  CAA_3628 
DOCKED: REMARK    2  A    between atoms: CAA_3628  and  CBA_3629 
DOCKED: REMARK    3  A    between atoms: CBA_3629  and  CGA_3630 
DOCKED: REMARK    4  A    between atoms: C3B_3635  and  CAB_3638 
DOCKED: REMARK    5  A    between atoms: C3C_3642  and  CAC_3645 
DOCKED: REMARK    6  A    between atoms: C3D_3649  and  CAD_3652 
DOCKED: REMARK    7  A    between atoms: CAD_3652  and  CBD_3653 
DOCKED: REMARK    8  A    between atoms: CBD_3653  and  CGD_3654 
DOCKED: USER                              x       y       z     vdW  Elec       q    Type
DOCKED: USER                           _______ _______ _______ _____ _____    ______ ____
DOCKED: ROOT
DOCKED: ATOM      1  CHA HEM A1501      54.249  81.097  10.229 -0.27 +0.04    +0.038 A 
DOCKED: ATOM      2  CHB HEM A1501      55.150  78.377  14.093 -0.39 +0.02    +0.038 A 
DOCKED: ATOM      3  CHC HEM A1501      55.516  74.469  11.288 -0.41 +0.01    +0.038 A 
DOCKED: ATOM      4  CHD HEM A1501      54.547  77.180   7.425 -0.39 +0.03    +0.038 A 
DOCKED: ATOM      5  C1A HEM A1501      54.436  80.695  11.547 -0.23 +0.07    +0.079 A 
DOCKED: ATOM      6  C2A HEM A1501      54.372  81.544  12.742 -0.33 -0.00    -0.006 A 
DOCKED: ATOM      7  C3A HEM A1501      54.626  80.771  13.788 -0.39 -0.00    -0.007 A 
DOCKED: ATOM      8  C4A HEM A1501      54.839  79.450  13.280 -0.32 +0.04    +0.079 A 
DOCKED: ATOM      9  CMA HEM A1501      54.665  81.174  15.230 -0.46 +0.01    +0.032 C 
DOCKED: ATOM     10  C1B HEM A1501      55.361  77.075  13.678 -0.32 +0.03    +0.079 A 
DOCKED: ATOM     11  C2B HEM A1501      55.707  75.980  14.576 -0.40 -0.00    -0.003 A 
DOCKED: ATOM     12  C3B HEM A1501      55.824  74.886  13.779 -0.41 +0.01    +0.015 A 
DOCKED: ATOM     13  C4B HEM A1501      55.526  75.310  12.414 -0.34 +0.03    +0.083 A 
DOCKED: ATOM     14  CMB HEM A1501      55.887  76.113  16.063 -0.54 +0.01    +0.033 C 
DOCKED: ATOM     15  C1C HEM A1501      55.261  74.803   9.985 -0.38 +0.03    +0.079 A 
DOCKED: ATOM     16  C2C HEM A1501      55.184  73.877   8.889 -0.47 -0.00    -0.003 A 
DOCKED: ATOM     17  C3C HEM A1501      54.894  74.616   7.787 -0.46 +0.01    +0.015 A 
DOCKED: ATOM     18  C4C HEM A1501      54.804  76.021   8.232 -0.37 +0.05    +0.083 A 
DOCKED: ATOM     19  CMC HEM A1501      55.398  72.384   9.034 -0.53 +0.01    +0.033 C 
DOCKED: ATOM     20  C1D HEM A1501      54.431  78.533   7.829 -0.33 +0.06    +0.079 A 
DOCKED: ATOM     21  C2D HEM A1501      54.166  79.633   6.951 -0.37 -0.01    -0.007 A 
DOCKED: ATOM     22  C3D HEM A1501      54.082  80.738   7.736 -0.35 -0.01    -0.006 A 
DOCKED: ATOM     23  C4D HEM A1501      54.290  80.308   9.105 -0.26 +0.08    +0.079 A 
DOCKED: ATOM     24  CMD HEM A1501      54.012  79.574   5.484 -0.47 +0.03    +0.032 C 
DOCKED: ATOM     25  NA  HEM A1501      54.696  79.404  11.925 -0.12 -0.17    -0.246 N 
DOCKED: ATOM     26  NB  HEM A1501      55.274  76.636  12.378 -0.13 -0.11    -0.246 N 
DOCKED: ATOM     27  NC  HEM A1501      55.005  76.061   9.550 -0.14 -0.12    -0.246 N 
DOCKED: ATOM     28  ND  HEM A1501      54.495  78.965   9.124 -0.18 -0.20    -0.246 N 
DOCKED: ATOM     29 FE   HEM A1501      54.857  77.761  10.723 -0.07 +0.00    +0.000 Fe
DOCKED: ENDROOT
DOCKED: BRANCH   6  30
DOCKED: ATOM     30  CAA HEM A1501      54.074  83.000  12.812 -0.40 +0.04    +0.039 C 
DOCKED: BRANCH  30  31
DOCKED: ATOM     31  CBA HEM A1501      52.609  83.259  13.107 -0.52 +0.11    +0.102 C 
DOCKED: BRANCH  31  32
DOCKED: ATOM     32  CGA HEM A1501      52.179  84.686  12.902 -0.45 +0.27    +0.186 C 
DOCKED: ATOM     33  O1A HEM A1501      52.868  85.412  12.149 -0.42 -1.49    -0.647 OA
DOCKED: ATOM     34  O2A HEM A1501      51.128  85.073  13.454 -0.55 -0.88    -0.647 OA
DOCKED: ENDBRANCH  31  32
DOCKED: ENDBRANCH  30  31
DOCKED: ENDBRANCH   6  30
DOCKED: BRANCH  22  35
DOCKED: ATOM     35  CAD HEM A1501      53.821  82.103   7.221 -0.45 +0.05    +0.039 C 
DOCKED: BRANCH  35  36
DOCKED: ATOM     36  CBD HEM A1501      52.446  82.211   6.562 -0.58 +0.15    +0.102 C 
DOCKED: BRANCH  36  37
DOCKED: ATOM     37  CGD HEM A1501      52.070  83.638   6.208 -0.63 +0.35    +0.186 C 
DOCKED: ATOM     38  O1D HEM A1501      52.940  84.466   6.557 -1.07 -1.68    -0.647 OA
DOCKED: ATOM     39  O2D HEM A1501      50.972  83.942   5.561 -0.96 -1.39    -0.647 OA
DOCKED: ENDBRANCH  36  37
DOCKED: ENDBRANCH  35  36
DOCKED: ENDBRANCH  22  35
DOCKED: BRANCH  17  40
DOCKED: ATOM     40  CAC HEM A1501      54.709  74.157   6.406 -0.61 +0.00    +0.001 C 
DOCKED: ATOM     41  CBC HEM A1501      53.679  74.444   5.595 -0.67 +0.00    +0.000 C 
DOCKED: ENDBRANCH  17  40
DOCKED: BRANCH  12  42
DOCKED: ATOM     42  CAB HEM A1501      56.169  73.482  14.096 -0.58 +0.00    +0.001 C 
DOCKED: ATOM     43  CBB HEM A1501      57.060  72.989  14.933 -0.65 +0.00    +0.000 C 
DOCKED: ENDBRANCH  12  42
DOCKED: TORSDOF 8
DOCKED: TER
DOCKED: ENDMDL
________________________________________________________________________________


	BEGINNING GENETIC ALGORITHM DOCKING 4 of 100
Run: 4 Seed: 1372995283 1268315225 [ Run 4 of 100 GA/GALS ]
Beginning LAMARCKIAN GENETIC ALGORITHM (LGA), with a maximum of 2500000 energy evaluations.

Final-Value: -23.516


	FINAL GENETIC ALGORITHM DOCKED STATE
	_______________________________________________


Detailed state:  trans 54.914 79.086 10.748 quatxyzw -0.181775 0.968347 -0.168532 -0.029299 center 54.495 78.699 10.493 ntor 8 179.8531 -59.8110 160.9696 -156.8654 9.8450 -15.3617 161.3998 -166.2176
State:	 54.914  79.086  10.748  -0.182  0.969 -0.169 -176.642    179.85  -59.81  160.97 -156.87    9.84  -15.36  161.40 -166.22

DOCKED: MODEL        4
DOCKED: USER    Run = 4
DOCKED: USER    DPF = C:/Users/georg/Desktop/fall2024/4-Computational_Biology/Assignment/executables/HEM.dpf
DOCKED: USER  
DOCKED: USER    Estimated Free Energy of Binding    =  -20.54 kcal/mol  [=(1)+(2)+(3)-(4)]
DOCKED: USER    Estimated Inhibition Constant, Ki   =  880.58 aM (attomolar)  [Temperature = 298.15 K]
DOCKED: USER    
DOCKED: USER    (1) Final Intermolecular Energy     =  -22.93 kcal/mol
DOCKED: USER        vdW + Hbond + desolv Energy     =  -18.80 kcal/mol
DOCKED: USER        Electrostatic Energy            =   -4.13 kcal/mol
DOCKED: USER    (2) Final Total Internal Energy     =   -0.59 kcal/mol
DOCKED: USER    (3) Torsional Free Energy           =   +2.39 kcal/mol
DOCKED: USER    (4) Unbound System's Energy  [=(2)] =   -0.59 kcal/mol
DOCKED: USER    
DOCKED: USER    
DOCKED: USER    NEWDPF move HEM.pdbqt
DOCKED: USER    NEWDPF about 54.495000 78.699000 10.493000
DOCKED: USER    NEWDPF tran0 54.913934 79.085893 10.748302
DOCKED: USER    NEWDPF quaternion0 -0.181775 0.968347 -0.168532 -0.029299
DOCKED: USER    NEWDPF axisangle0 -0.181853 0.968763 -0.168605 -176.642120
DOCKED: USER    NEWDPF quat0 -0.181853 0.968763 -0.168605 -176.642120
DOCKED: USER    NEWDPF dihe0 179.85 -59.81 160.97 -156.87 9.84 -15.36 161.40 -166.22 
DOCKED: USER  keepresnum = 1 
DOCKED: USER  
DOCKED: REMARK  8 active torsions:
DOCKED: REMARK  status: ('A' for Active; 'I' for Inactive)
DOCKED: REMARK    1  A    between atoms: C2A_3624  and  CAA_3628 
DOCKED: REMARK    2  A    between atoms: CAA_3628  and  CBA_3629 
DOCKED: REMARK    3  A    between atoms: CBA_3629  and  CGA_3630 
DOCKED: REMARK    4  A    between atoms: C3B_3635  and  CAB_3638 
DOCKED: REMARK    5  A    between atoms: C3C_3642  and  CAC_3645 
DOCKED: REMARK    6  A    between atoms: C3D_3649  and  CAD_3652 
DOCKED: REMARK    7  A    between atoms: CAD_3652  and  CBD_3653 
DOCKED: REMARK    8  A    between atoms: CBD_3653  and  CGD_3654 
DOCKED: USER                              x       y       z     vdW  Elec       q    Type
DOCKED: USER                           _______ _______ _______ _____ _____    ______ ____
DOCKED: ROOT
DOCKED: ATOM      1  CHA HEM A1501      54.130  81.286  10.350 -0.29 +0.04    +0.038 A 
DOCKED: ATOM      2  CHB HEM A1501      54.703  77.402   7.570 -0.36 +0.03    +0.038 A 
DOCKED: ATOM      3  CHC HEM A1501      55.515  74.693  11.480 -0.40 +0.01    +0.038 A 
DOCKED: ATOM      4  CHD HEM A1501      55.006  78.596  14.259 -0.40 +0.02    +0.038 A 
DOCKED: ATOM      5  C1A HEM A1501      54.242  80.466   9.231 -0.26 +0.08    +0.079 A 
DOCKED: ATOM      6  C2A HEM A1501      54.113  80.872   7.828 -0.35 -0.01    -0.006 A 
DOCKED: ATOM      7  C3A HEM A1501      54.272  79.784   7.088 -0.35 -0.01    -0.007 A 
DOCKED: ATOM      8  C4A HEM A1501      54.510  78.702   7.994 -0.31 +0.06    +0.079 A 
DOCKED: ATOM      9  CMA HEM A1501      54.238  79.687   5.593 -0.48 +0.03    +0.032 C 
DOCKED: ATOM     10  C1B HEM A1501      54.945  76.309   8.382 -0.33 +0.04    +0.079 A 
DOCKED: ATOM     11  C2B HEM A1501      55.123  74.950   7.887 -0.46 -0.00    -0.003 A 
DOCKED: ATOM     12  C3B HEM A1501      55.336  74.190   8.992 -0.45 +0.01    +0.015 A 
DOCKED: ATOM     13  C4B HEM A1501      55.312  75.085  10.145 -0.35 +0.03    +0.083 A 
DOCKED: ATOM     14  CMB HEM A1501      55.063  74.549   6.438 -0.58 +0.02    +0.033 C 
DOCKED: ATOM     15  C1C HEM A1501      55.491  75.475  12.603 -0.34 +0.03    +0.079 A 
DOCKED: ATOM     16  C2C HEM A1501      55.790  75.026  13.935 -0.41 -0.00    -0.003 A 
DOCKED: ATOM     17  C3C HEM A1501      55.670  76.114  14.738 -0.40 +0.01    +0.015 A 
DOCKED: ATOM     18  C4C HEM A1501      55.281  77.242  13.869 -0.33 +0.03    +0.083 A 
DOCKED: ATOM     19  CMC HEM A1501      56.158  73.596  14.277 -0.55 +0.01    +0.033 C 
DOCKED: ATOM     20  C1D HEM A1501      54.657  79.700  13.444 -0.34 +0.05    +0.079 A 
DOCKED: ATOM     21  C2D HEM A1501      54.405  81.026  13.920 -0.41 -0.00    -0.007 A 
DOCKED: ATOM     22  C3D HEM A1501      54.156  81.787  12.823 -0.36 -0.00    -0.006 A 
DOCKED: ATOM     23  C4D HEM A1501      54.265  80.920  11.666 -0.24 +0.07    +0.079 A 
DOCKED: ATOM     24  CMD HEM A1501      54.416  81.476  15.327 -0.47 +0.01    +0.032 C 
DOCKED: ATOM     25  NA  HEM A1501      54.518  79.126   9.290 -0.18 -0.20    -0.246 N 
DOCKED: ATOM     26  NB  HEM A1501      55.052  76.350   9.752 -0.02 -0.12    -0.246 N 
DOCKED: ATOM     27  NC  HEM A1501      55.218  76.803  12.610 -0.15 -0.11    -0.246 N 
DOCKED: ATOM     28  ND  HEM A1501      54.573  79.662  12.080 -0.14 -0.17    -0.246 N 
DOCKED: ATOM     29 FE   HEM A1501      54.850  77.991  10.955 -0.07 +0.00    +0.000 Fe
DOCKED: ENDROOT
DOCKED: BRANCH   6  30
DOCKED: ATOM     30  CAA HEM A1501      53.858  82.237   7.292 -0.44 +0.06    +0.039 C 
DOCKED: BRANCH  30  31
DOCKED: ATOM     31  CBA HEM A1501      52.402  82.429   6.916 -0.57 +0.16    +0.102 C 
DOCKED: BRANCH  31  32
DOCKED: ATOM     32  CGA HEM A1501      52.104  83.738   6.238 -0.64 +0.36    +0.186 C 
DOCKED: ATOM     33  O1A HEM A1501      52.940  84.665   6.344 -1.21 -1.72    -0.647 OA
DOCKED: ATOM     34  O2A HEM A1501      51.060  83.832   5.561 -1.00 -1.36    -0.647 OA
DOCKED: ENDBRANCH  31  32
DOCKED: ENDBRANCH  30  31
DOCKED: ENDBRANCH   6  30
DOCKED: BRANCH  22  35
DOCKED: ATOM     35  CAD HEM A1501      53.840  83.234  12.872 -0.44 +0.04    +0.039 C 
DOCKED: BRANCH  35  36
DOCKED: ATOM     36  CBD HEM A1501      52.368  83.487  13.194 -0.52 +0.11    +0.102 C 
DOCKED: BRANCH  36  37
DOCKED: ATOM     37  CGD HEM A1501      52.082  84.930  13.566 -0.49 +0.26    +0.186 C 
DOCKED: ATOM     38  O1D HEM A1501      53.123  85.580  13.805 -0.46 -1.05    -0.647 OA
DOCKED: ATOM     39  O2D HEM A1501      50.872  85.432  13.579 -0.90 -0.94    -0.647 OA
DOCKED: ENDBRANCH  36  37
DOCKED: ENDBRANCH  35  36
DOCKED: ENDBRANCH  22  35
DOCKED: BRANCH  17  40
DOCKED: ATOM     40  CAC HEM A1501      55.866  76.200  16.190 -0.58 +0.00    +0.001 C 
DOCKED: ATOM     41  CBC HEM A1501      55.181  75.538  17.135 -0.66 +0.00    +0.000 C 
DOCKED: ENDBRANCH  17  40
DOCKED: BRANCH  12  42
DOCKED: ATOM     42  CAB HEM A1501      55.569  72.735   9.145 -0.53 +0.00    +0.001 C 
DOCKED: ATOM     43  CBB HEM A1501      54.713  71.735   9.209 -0.56 +0.00    +0.000 C 
DOCKED: ENDBRANCH  12  42
DOCKED: TORSDOF 8
DOCKED: TER
DOCKED: ENDMDL
________________________________________________________________________________


	BEGINNING GENETIC ALGORITHM DOCKING 5 of 100
Run: 5 Seed: 172216366 237601736 [ Run 5 of 100 GA/GALS ]
Beginning LAMARCKIAN GENETIC ALGORITHM (LGA), with a maximum of 2500000 energy evaluations.

Final-Value: -23.318


	FINAL GENETIC ALGORITHM DOCKED STATE
	_______________________________________________


Detailed state:  trans 54.927 78.853 10.589 quatxyzw -0.161950 0.977138 -0.136604 0.017670 center 54.495 78.699 10.493 ntor 8 114.3531 57.7211 -158.6790 -130.7492 -7.5251 11.9873 123.0700 179.3125
State:	 54.927  78.853  10.589  -0.162  0.977 -0.137 177.975    114.35   57.72 -158.68 -130.75   -7.53   11.99  123.07  179.31

DOCKED: MODEL        5
DOCKED: USER    Run = 5
DOCKED: USER    DPF = C:/Users/georg/Desktop/fall2024/4-Computational_Biology/Assignment/executables/HEM.dpf
DOCKED: USER  
DOCKED: USER    Estimated Free Energy of Binding    =  -20.62 kcal/mol  [=(1)+(2)+(3)-(4)]
DOCKED: USER    Estimated Inhibition Constant, Ki   =  770.40 aM (attomolar)  [Temperature = 298.15 K]
DOCKED: USER    
DOCKED: USER    (1) Final Intermolecular Energy     =  -23.00 kcal/mol
DOCKED: USER        vdW + Hbond + desolv Energy     =  -18.41 kcal/mol
DOCKED: USER        Electrostatic Energy            =   -4.59 kcal/mol
DOCKED: USER    (2) Final Total Internal Energy     =   -0.31 kcal/mol
DOCKED: USER    (3) Torsional Free Energy           =   +2.39 kcal/mol
DOCKED: USER    (4) Unbound System's Energy  [=(2)] =   -0.31 kcal/mol
DOCKED: USER    
DOCKED: USER    
DOCKED: USER    NEWDPF move HEM.pdbqt
DOCKED: USER    NEWDPF about 54.495000 78.699000 10.493000
DOCKED: USER    NEWDPF tran0 54.926861 78.853384 10.588791
DOCKED: USER    NEWDPF quaternion0 -0.161950 0.977138 -0.136604 0.017670
DOCKED: USER    NEWDPF axisangle0 -0.161975 0.977291 -0.136626 177.975111
DOCKED: USER    NEWDPF quat0 -0.161975 0.977291 -0.136626 177.975111
DOCKED: USER    NEWDPF dihe0 114.35 57.72 -158.68 -130.75 -7.53 11.99 123.07 179.31 
DOCKED: USER  keepresnum = 1 
DOCKED: USER  
DOCKED: REMARK  8 active torsions:
DOCKED: REMARK  status: ('A' for Active; 'I' for Inactive)
DOCKED: REMARK    1  A    between atoms: C2A_3624  and  CAA_3628 
DOCKED: REMARK    2  A    between atoms: CAA_3628  and  CBA_3629 
DOCKED: REMARK    3  A    between atoms: CBA_3629  and  CGA_3630 
DOCKED: REMARK    4  A    between atoms: C3B_3635  and  CAB_3638 
DOCKED: REMARK    5  A    between atoms: C3C_3642  and  CAC_3645 
DOCKED: REMARK    6  A    between atoms: C3D_3649  and  CAD_3652 
DOCKED: REMARK    7  A    between atoms: CAD_3652  and  CBD_3653 
DOCKED: REMARK    8  A    between atoms: CBD_3653  and  CGD_3654 
DOCKED: USER                              x       y       z     vdW  Elec       q    Type
DOCKED: USER                           _______ _______ _______ _____ _____    ______ ____
DOCKED: ROOT
DOCKED: ATOM      1  CHA HEM A1501      54.237  81.109  10.371 -0.27 +0.04    +0.038 A 
DOCKED: ATOM      2  CHB HEM A1501      54.318  77.348   7.372 -0.41 +0.03    +0.038 A 
DOCKED: ATOM      3  CHC HEM A1501      55.339  74.403  11.055 -0.41 +0.01    +0.038 A 
DOCKED: ATOM      4  CHD HEM A1501      55.324  78.179  14.048 -0.37 +0.02    +0.038 A 
DOCKED: ATOM      5  C1A HEM A1501      54.195  80.344   9.210 -0.26 +0.08    +0.079 A 
DOCKED: ATOM      6  C2A HEM A1501      53.957  80.827   7.846 -0.37 -0.01    -0.006 A 
DOCKED: ATOM      7  C3A HEM A1501      53.982  79.772   7.045 -0.37 -0.01    -0.007 A 
DOCKED: ATOM      8  C4A HEM A1501      54.242  78.634   7.872 -0.34 +0.06    +0.079 A 
DOCKED: ATOM      9  CMA HEM A1501      53.801  79.754   5.557 -0.46 +0.03    +0.032 C 
DOCKED: ATOM     10  C1B HEM A1501      54.573  76.204   8.106 -0.38 +0.05    +0.079 A 
DOCKED: ATOM     11  C2B HEM A1501      54.624  74.865   7.533 -0.48 -0.00    -0.003 A 
DOCKED: ATOM     12  C3B HEM A1501      54.896  74.039   8.576 -0.45 +0.01    +0.015 A 
DOCKED: ATOM     13  C4B HEM A1501      55.034  74.874   9.766 -0.37 +0.03    +0.083 A 
DOCKED: ATOM     14  CMB HEM A1501      54.404  74.542   6.080 -0.60 +0.02    +0.033 C 
DOCKED: ATOM     15  C1C HEM A1501      55.468  75.126  12.210 -0.35 +0.03    +0.079 A 
DOCKED: ATOM     16  C2C HEM A1501      55.865  74.594  13.484 -0.43 -0.00    -0.003 A 
DOCKED: ATOM     17  C3C HEM A1501      55.885  75.644  14.345 -0.40 +0.01    +0.015 A 
DOCKED: ATOM     18  C4C HEM A1501      55.481  76.834  13.570 -0.31 +0.03    +0.083 A 
DOCKED: ATOM     19  CMC HEM A1501      56.181  73.131  13.722 -0.53 +0.01    +0.033 C 
DOCKED: ATOM     20  C1D HEM A1501      54.963  79.341  13.322 -0.31 +0.04    +0.079 A 
DOCKED: ATOM     21  C2D HEM A1501      54.834  80.652  13.881 -0.37 -0.00    -0.007 A 
DOCKED: ATOM     22  C3D HEM A1501      54.527  81.481  12.850 -0.31 -0.00    -0.006 A 
DOCKED: ATOM     23  C4D HEM A1501      54.475  80.669  11.649 -0.23 +0.06    +0.079 A 
DOCKED: ATOM     24  CMD HEM A1501      55.004  81.028  15.299 -0.45 +0.01    +0.032 C 
DOCKED: ATOM     25  NA  HEM A1501      54.397  78.989   9.179 -0.18 -0.20    -0.246 N 
DOCKED: ATOM     26  NB  HEM A1501      54.811  76.169   9.459 -0.08 -0.12    -0.246 N 
DOCKED: ATOM     27  NC  HEM A1501      55.274  76.465  12.305 -0.14 -0.10    -0.246 N 
DOCKED: ATOM     28  ND  HEM A1501      54.748  79.377  11.973 -0.13 -0.17    -0.246 N 
DOCKED: ATOM     29 FE   HEM A1501      54.819  77.754  10.750 -0.07 +0.00    +0.000 Fe
DOCKED: ENDROOT
DOCKED: BRANCH   6  30
DOCKED: ATOM     30  CAA HEM A1501      53.732  82.230   7.401 -0.44 +0.06    +0.039 C 
DOCKED: BRANCH  30  31
DOCKED: ATOM     31  CBA HEM A1501      52.636  82.317   6.357 -0.58 +0.15    +0.102 C 
DOCKED: BRANCH  31  32
DOCKED: ATOM     32  CGA HEM A1501      52.170  83.717   6.063 -0.65 +0.35    +0.186 C 
DOCKED: ATOM     33  O1A HEM A1501      52.943  84.668   6.324 -1.21 -1.71    -0.647 OA
DOCKED: ATOM     34  O2A HEM A1501      51.052  83.870   5.530 -0.99 -1.36    -0.647 OA
DOCKED: ENDBRANCH  31  32
DOCKED: ENDBRANCH  30  31
DOCKED: ENDBRANCH   6  30
DOCKED: BRANCH  22  35
DOCKED: ATOM     35  CAD HEM A1501      54.301  82.938  12.996 -0.37 +0.04    +0.039 C 
DOCKED: BRANCH  35  36
DOCKED: ATOM     36  CBD HEM A1501      52.816  83.276  13.122 -0.51 +0.11    +0.102 C 
DOCKED: BRANCH  36  37
DOCKED: ATOM     37  CGD HEM A1501      52.527  84.754  12.933 -0.42 +0.28    +0.186 C 
DOCKED: ATOM     38  O1D HEM A1501      53.505  85.380  12.468 -0.54 -1.47    -0.647 OA
DOCKED: ATOM     39  O2D HEM A1501      51.357  85.286  13.187 -0.55 -0.99    -0.647 OA
DOCKED: ENDBRANCH  36  37
DOCKED: ENDBRANCH  35  36
DOCKED: ENDBRANCH  22  35
DOCKED: BRANCH  17  40
DOCKED: ATOM     40  CAC HEM A1501      56.223  75.645  15.773 -0.54 +0.00    +0.001 C 
DOCKED: ATOM     41  CBC HEM A1501      55.474  76.129  16.776 -0.63 +0.00    +0.000 C 
DOCKED: ENDBRANCH  17  40
DOCKED: BRANCH  12  42
DOCKED: ATOM     42  CAB HEM A1501      55.058  72.568   8.638 -0.57 +0.00    +0.001 C 
DOCKED: ATOM     43  CBB HEM A1501      55.558  71.725   7.756 -0.56 +0.00    +0.000 C 
DOCKED: ENDBRANCH  12  42
DOCKED: TORSDOF 8
DOCKED: TER
DOCKED: ENDMDL
________________________________________________________________________________


	BEGINNING GENETIC ALGORITHM DOCKING 6 of 100
Run: 6 Seed: 1637591163 1920990163 [ Run 6 of 100 GA/GALS ]
Beginning LAMARCKIAN GENETIC ALGORITHM (LGA), with a maximum of 2500000 energy evaluations.

Final-Value: -22.274


	FINAL GENETIC ALGORITHM DOCKED STATE
	_______________________________________________


Detailed state:  trans 54.340 78.835 10.663 quatxyzw 0.004213 -0.020833 0.018423 -0.999604 center 54.495 78.699 10.493 ntor 8 -7.1981 -42.2028 180.0000 -179.0633 27.6950 8.1475 -180.0000 5.6807
State:	 54.340  78.835  10.663   0.150 -0.741  0.655 -3.224     -7.20  -42.20  180.00 -179.06   27.69    8.15 -180.00    5.68

DOCKED: MODEL        6
DOCKED: USER    Run = 6
DOCKED: USER    DPF = C:/Users/georg/Desktop/fall2024/4-Computational_Biology/Assignment/executables/HEM.dpf
DOCKED: USER  
DOCKED: USER    Estimated Free Energy of Binding    =  -19.25 kcal/mol  [=(1)+(2)+(3)-(4)]
DOCKED: USER    Estimated Inhibition Constant, Ki   =    7.72 fM (femtomolar)  [Temperature = 298.15 K]
DOCKED: USER    
DOCKED: USER    (1) Final Intermolecular Energy     =  -21.64 kcal/mol
DOCKED: USER        vdW + Hbond + desolv Energy     =  -17.66 kcal/mol
DOCKED: USER        Electrostatic Energy            =   -3.98 kcal/mol
DOCKED: USER    (2) Final Total Internal Energy     =   -0.63 kcal/mol
DOCKED: USER    (3) Torsional Free Energy           =   +2.39 kcal/mol
DOCKED: USER    (4) Unbound System's Energy  [=(2)] =   -0.63 kcal/mol
DOCKED: USER    
DOCKED: USER    
DOCKED: USER    NEWDPF move HEM.pdbqt
DOCKED: USER    NEWDPF about 54.495000 78.699000 10.493000
DOCKED: USER    NEWDPF tran0 54.339844 78.834993 10.662622
DOCKED: USER    NEWDPF quaternion0 0.004213 -0.020833 0.018423 -0.999604
DOCKED: USER    NEWDPF axisangle0 0.149780 -0.740655 0.654978 -3.223635
DOCKED: USER    NEWDPF quat0 0.149780 -0.740655 0.654978 -3.223635
DOCKED: USER    NEWDPF dihe0 -7.20 -42.20 180.00 -179.06 27.69 8.15 -180.00 5.68 
DOCKED: USER  keepresnum = 1 
DOCKED: USER  
DOCKED: REMARK  8 active torsions:
DOCKED: REMARK  status: ('A' for Active; 'I' for Inactive)
DOCKED: REMARK    1  A    between atoms: C2A_3624  and  CAA_3628 
DOCKED: REMARK    2  A    between atoms: CAA_3628  and  CBA_3629 
DOCKED: REMARK    3  A    between atoms: CBA_3629  and  CGA_3630 
DOCKED: REMARK    4  A    between atoms: C3B_3635  and  CAB_3638 
DOCKED: REMARK    5  A    between atoms: C3C_3642  and  CAC_3645 
DOCKED: REMARK    6  A    between atoms: C3D_3649  and  CAD_3652 
DOCKED: REMARK    7  A    between atoms: CAD_3652  and  CBD_3653 
DOCKED: REMARK    8  A    between atoms: CBD_3653  and  CGD_3654 
DOCKED: USER                              x       y       z     vdW  Elec       q    Type
DOCKED: USER                           _______ _______ _______ _____ _____    ______ ____
DOCKED: ROOT
DOCKED: ATOM      1  CHA HEM A1501      54.204  81.167  10.266 -0.28 +0.04    +0.038 A 
DOCKED: ATOM      2  CHB HEM A1501      54.998  78.498  14.189 -0.40 +0.02    +0.038 A 
DOCKED: ATOM      3  CHC HEM A1501      55.499  74.564  11.441 -0.40 +0.01    +0.038 A 
DOCKED: ATOM      4  CHD HEM A1501      54.638  77.224   7.517 -0.38 +0.03    +0.038 A 
DOCKED: ATOM      5  C1A HEM A1501      54.350  80.782  11.595 -0.23 +0.07    +0.079 A 
DOCKED: ATOM      6  C2A HEM A1501      54.235  81.642  12.777 -0.35 -0.00    -0.006 A 
DOCKED: ATOM      7  C3A HEM A1501      54.461  80.883  13.839 -0.41 -0.00    -0.007 A 
DOCKED: ATOM      8  C4A HEM A1501      54.704  79.558  13.354 -0.33 +0.05    +0.079 A 
DOCKED: ATOM      9  CMA HEM A1501      54.446  81.301  15.278 -0.48 +0.01    +0.032 C 
DOCKED: ATOM     10  C1B HEM A1501      55.235  77.194  13.796 -0.33 +0.03    +0.079 A 
DOCKED: ATOM     11  C2B HEM A1501      55.561  76.112  14.717 -0.40 -0.00    -0.003 A 
DOCKED: ATOM     12  C3B HEM A1501      55.716  75.011  13.937 -0.39 +0.01    +0.015 A 
DOCKED: ATOM     13  C4B HEM A1501      55.462  75.418  12.557 -0.33 +0.03    +0.083 A 
DOCKED: ATOM     14  CMB HEM A1501      55.688  76.263  16.208 -0.56 +0.01    +0.033 C 
DOCKED: ATOM     15  C1C HEM A1501      55.286  74.881  10.127 -0.37 +0.03    +0.079 A 
DOCKED: ATOM     16  C2C HEM A1501      55.255  73.943   9.039 -0.47 -0.00    -0.003 A 
DOCKED: ATOM     17  C3C HEM A1501      54.997  74.667   7.920 -0.46 +0.01    +0.015 A 
DOCKED: ATOM     18  C4C HEM A1501      54.878  76.076   8.345 -0.35 +0.05    +0.083 A 
DOCKED: ATOM     19  CMC HEM A1501      55.479  72.454   9.208 -0.53 +0.01    +0.033 C 
DOCKED: ATOM     20  C1D HEM A1501      54.494  78.580   7.902 -0.32 +0.06    +0.079 A 
DOCKED: ATOM     21  C2D HEM A1501      54.249  79.667   7.004 -0.36 -0.01    -0.007 A 
DOCKED: ATOM     22  C3D HEM A1501      54.127  80.780   7.773 -0.35 -0.01    -0.006 A 
DOCKED: ATOM     23  C4D HEM A1501      54.292  80.367   9.153 -0.26 +0.08    +0.079 A 
DOCKED: ATOM     24  CMD HEM A1501      54.146  79.592   5.533 -0.48 +0.03    +0.032 C 
DOCKED: ATOM     25  NA  HEM A1501      54.608  79.497  11.995 -0.12 -0.17    -0.246 N 
DOCKED: ATOM     26  NB  HEM A1501      55.198  76.740  12.499 -0.13 -0.11    -0.246 N 
DOCKED: ATOM     27  NC  HEM A1501      55.032  76.132   9.670 -0.11 -0.12    -0.246 N 
DOCKED: ATOM     28  ND  HEM A1501      54.510  79.026   9.194 -0.18 -0.20    -0.246 N 
DOCKED: ATOM     29 FE   HEM A1501      54.827  77.843  10.818 -0.07 +0.00    +0.000 Fe
DOCKED: ENDROOT
DOCKED: BRANCH   6  30
DOCKED: ATOM     30  CAA HEM A1501      53.921  83.096  12.821 -0.43 +0.04    +0.039 C 
DOCKED: BRANCH  30  31
DOCKED: ATOM     31  CBA HEM A1501      55.148  83.944  12.548 -0.27 +0.13    +0.102 C 
DOCKED: BRANCH  31  32
DOCKED: ATOM     32  CGA HEM A1501      55.074  85.339  13.106 -0.25 +0.28    +0.186 C 
DOCKED: ATOM     33  O1A HEM A1501      54.050  85.669  13.748 -0.29 -0.99    -0.647 OA
DOCKED: ATOM     34  O2A HEM A1501      56.054  86.094  12.945 -0.38 -0.86    -0.647 OA
DOCKED: ENDBRANCH  31  32
DOCKED: ENDBRANCH  30  31
DOCKED: ENDBRANCH   6  30
DOCKED: BRANCH  22  35
DOCKED: ATOM     35  CAD HEM A1501      53.870  82.136   7.234 -0.44 +0.06    +0.039 C 
DOCKED: BRANCH  35  36
DOCKED: ATOM     36  CBD HEM A1501      52.375  82.437   7.132 -0.57 +0.16    +0.102 C 
DOCKED: BRANCH  36  37
DOCKED: ATOM     37  CGD HEM A1501      52.078  83.710   6.362 -0.62 +0.36    +0.186 C 
DOCKED: ATOM     38  O1D HEM A1501      52.933  84.601   6.558 -1.12 -1.75    -0.647 OA
DOCKED: ATOM     39  O2D HEM A1501      51.060  83.823   5.546 -1.00 -1.36    -0.647 OA
DOCKED: ENDBRANCH  36  37
DOCKED: ENDBRANCH  35  36
DOCKED: ENDBRANCH  22  35
DOCKED: BRANCH  17  40
DOCKED: ATOM     40  CAC HEM A1501      54.864  74.192   6.538 -0.60 +0.00    +0.001 C 
DOCKED: ATOM     41  CBC HEM A1501      53.745  74.176   5.798 -0.66 +0.00    +0.000 C 
DOCKED: ENDBRANCH  17  40
DOCKED: BRANCH  12  42
DOCKED: ATOM     42  CAB HEM A1501      56.064  73.613  14.281 -0.57 +0.00    +0.001 C 
DOCKED: ATOM     43  CBB HEM A1501      57.176  73.106  14.775 -0.61 +0.00    +0.000 C 
DOCKED: ENDBRANCH  12  42
DOCKED: TORSDOF 8
DOCKED: TER
DOCKED: ENDMDL
________________________________________________________________________________


	BEGINNING GENETIC ALGORITHM DOCKING 7 of 100
Run: 7 Seed: 1413022659 1618247008 [ Run 7 of 100 GA/GALS ]
Beginning LAMARCKIAN GENETIC ALGORITHM (LGA), with a maximum of 2500000 energy evaluations.

Final-Value: -23.110


	FINAL GENETIC ALGORITHM DOCKED STATE
	_______________________________________________


Detailed state:  trans 54.965 78.943 10.723 quatxyzw -0.166566 0.978985 -0.116775 0.014415 center 54.495 78.699 10.493 ntor 8 119.2896 -100.9605 -32.0093 65.4298 37.9092 31.5275 151.1577 -177.5654
State:	 54.965  78.943  10.723  -0.167  0.979 -0.117 178.348    119.29 -100.96  -32.01   65.43   37.91   31.53  151.16 -177.57

DOCKED: MODEL        7
DOCKED: USER    Run = 7
DOCKED: USER    DPF = C:/Users/georg/Desktop/fall2024/4-Computational_Biology/Assignment/executables/HEM.dpf
DOCKED: USER  
DOCKED: USER    Estimated Free Energy of Binding    =  -20.10 kcal/mol  [=(1)+(2)+(3)-(4)]
DOCKED: USER    Estimated Inhibition Constant, Ki   =    1.85 fM (femtomolar)  [Temperature = 298.15 K]
DOCKED: USER    
DOCKED: USER    (1) Final Intermolecular Energy     =  -22.49 kcal/mol
DOCKED: USER        vdW + Hbond + desolv Energy     =  -18.17 kcal/mol
DOCKED: USER        Electrostatic Energy            =   -4.32 kcal/mol
DOCKED: USER    (2) Final Total Internal Energy     =   -0.62 kcal/mol
DOCKED: USER    (3) Torsional Free Energy           =   +2.39 kcal/mol
DOCKED: USER    (4) Unbound System's Energy  [=(2)] =   -0.62 kcal/mol
DOCKED: USER    
DOCKED: USER    
DOCKED: USER    NEWDPF move HEM.pdbqt
DOCKED: USER    NEWDPF about 54.495000 78.699000 10.493000
DOCKED: USER    NEWDPF tran0 54.964588 78.943241 10.722757
DOCKED: USER    NEWDPF quaternion0 -0.166566 0.978985 -0.116775 0.014415
DOCKED: USER    NEWDPF axisangle0 -0.166583 0.979087 -0.116787 178.348153
DOCKED: USER    NEWDPF quat0 -0.166583 0.979087 -0.116787 178.348153
DOCKED: USER    NEWDPF dihe0 119.29 -100.96 -32.01 65.43 37.91 31.53 151.16 -177.57 
DOCKED: USER  keepresnum = 1 
DOCKED: USER  
DOCKED: REMARK  8 active torsions:
DOCKED: REMARK  status: ('A' for Active; 'I' for Inactive)
DOCKED: REMARK    1  A    between atoms: C2A_3624  and  CAA_3628 
DOCKED: REMARK    2  A    between atoms: CAA_3628  and  CBA_3629 
DOCKED: REMARK    3  A    between atoms: CBA_3629  and  CGA_3630 
DOCKED: REMARK    4  A    between atoms: C3B_3635  and  CAB_3638 
DOCKED: REMARK    5  A    between atoms: C3C_3642  and  CAC_3645 
DOCKED: REMARK    6  A    between atoms: C3D_3649  and  CAD_3652 
DOCKED: REMARK    7  A    between atoms: CAD_3652  and  CBD_3653 
DOCKED: REMARK    8  A    between atoms: CBD_3653  and  CGD_3654 
DOCKED: USER                              x       y       z     vdW  Elec       q    Type
DOCKED: USER                           _______ _______ _______ _____ _____    ______ ____
DOCKED: ROOT
DOCKED: ATOM      1  CHA HEM A1501      54.255  81.200  10.597 -0.27 +0.04    +0.038 A 
DOCKED: ATOM      2  CHB HEM A1501      54.364  77.564   7.449 -0.40 +0.03    +0.038 A 
DOCKED: ATOM      3  CHC HEM A1501      55.416  74.482  11.008 -0.41 +0.01    +0.038 A 
DOCKED: ATOM      4  CHD HEM A1501      55.372  78.133  14.151 -0.38 +0.02    +0.038 A 
DOCKED: ATOM      5  C1A HEM A1501      54.218  80.482   9.406 -0.25 +0.08    +0.079 A 
DOCKED: ATOM      6  C2A HEM A1501      53.974  81.018   8.063 -0.37 -0.01    -0.006 A 
DOCKED: ATOM      7  C3A HEM A1501      54.007  79.997   7.220 -0.37 -0.01    -0.007 A 
DOCKED: ATOM      8  C4A HEM A1501      54.278  78.828   8.000 -0.33 +0.07    +0.079 A 
DOCKED: ATOM      9  CMA HEM A1501      53.824  80.037   5.733 -0.47 +0.03    +0.032 C 
DOCKED: ATOM     10  C1B HEM A1501      54.630  76.394   8.135 -0.37 +0.05    +0.079 A 
DOCKED: ATOM     11  C2B HEM A1501      54.692  75.079   7.508 -0.48 -0.00    -0.003 A 
DOCKED: ATOM     12  C3B HEM A1501      54.972  74.214   8.517 -0.45 +0.01    +0.015 A 
DOCKED: ATOM     13  C4B HEM A1501      55.105  75.001   9.739 -0.36 +0.03    +0.083 A 
DOCKED: ATOM     14  CMB HEM A1501      54.472  74.814   6.044 -0.61 +0.02    +0.033 C 
DOCKED: ATOM     15  C1C HEM A1501      55.540  75.158  12.191 -0.35 +0.03    +0.079 A 
DOCKED: ATOM     16  C2C HEM A1501      55.944  74.578  13.442 -0.43 -0.00    -0.003 A 
DOCKED: ATOM     17  C3C HEM A1501      55.955  75.593  14.345 -0.40 +0.01    +0.015 A 
DOCKED: ATOM     18  C4C HEM A1501      55.541  76.810  13.619 -0.31 +0.03    +0.083 A 
DOCKED: ATOM     19  CMC HEM A1501      56.272  73.110  13.621 -0.52 +0.01    +0.033 C 
DOCKED: ATOM     20  C1D HEM A1501      55.001  79.320  13.473 -0.32 +0.04    +0.079 A 
DOCKED: ATOM     21  C2D HEM A1501      54.861  80.606  14.086 -0.38 -0.00    -0.007 A 
DOCKED: ATOM     22  C3D HEM A1501      54.545  81.473  13.089 -0.32 -0.00    -0.006 A 
DOCKED: ATOM     23  C4D HEM A1501      54.499  80.711  11.857 -0.23 +0.06    +0.079 A 
DOCKED: ATOM     24  CMD HEM A1501      55.030  80.926  15.517 -0.39 +0.01    +0.032 C 
DOCKED: ATOM     25  NA  HEM A1501      54.432  79.131   9.320 -0.18 -0.20    -0.246 N 
DOCKED: ATOM     26  NB  HEM A1501      54.870  76.306   9.485 -0.05 -0.12    -0.246 N 
DOCKED: ATOM     27  NC  HEM A1501      55.335  76.490  12.340 -0.15 -0.10    -0.246 N 
DOCKED: ATOM     28  ND  HEM A1501      54.783  79.409  12.127 -0.15 -0.16    -0.246 N 
DOCKED: ATOM     29 FE   HEM A1501      54.867  77.838  10.839 -0.07 +0.00    +0.000 Fe
DOCKED: ENDROOT
DOCKED: BRANCH   6  30
DOCKED: ATOM     30  CAA HEM A1501      53.736  82.435   7.675 -0.34 +0.06    +0.039 C 
DOCKED: BRANCH  30  31
DOCKED: ATOM     31  CBA HEM A1501      52.306  82.661   7.225 -0.56 +0.17    +0.102 C 
DOCKED: BRANCH  31  32
DOCKED: ATOM     32  CGA HEM A1501      52.154  83.688   6.137 -0.64 +0.35    +0.186 C 
DOCKED: ATOM     33  O1A HEM A1501      51.216  83.551   5.318 -1.09 -1.26    -0.647 OA
DOCKED: ATOM     34  O2A HEM A1501      52.939  84.658   6.122 -1.16 -1.63    -0.647 OA
DOCKED: ENDBRANCH  31  32
DOCKED: ENDBRANCH  30  31
DOCKED: ENDBRANCH   6  30
DOCKED: BRANCH  22  35
DOCKED: ATOM     35  CAD HEM A1501      54.307  82.922  13.294 -0.37 +0.04    +0.039 C 
DOCKED: BRANCH  35  36
DOCKED: ATOM     36  CBD HEM A1501      52.827  83.232  13.511 -0.49 +0.10    +0.102 C 
DOCKED: BRANCH  36  37
DOCKED: ATOM     37  CGD HEM A1501      52.413  84.576  12.941 -0.47 +0.26    +0.186 C 
DOCKED: ATOM     38  O1D HEM A1501      51.455  85.087  13.561 -0.44 -0.90    -0.647 OA
DOCKED: ATOM     39  O2D HEM A1501      53.039  85.145  11.940 -0.53 -1.46    -0.647 OA
DOCKED: ENDBRANCH  36  37
DOCKED: ENDBRANCH  35  36
DOCKED: ENDBRANCH  22  35
DOCKED: BRANCH  17  40
DOCKED: ATOM     40  CAC HEM A1501      56.296  75.539  15.771 -0.54 +0.00    +0.001 C 
DOCKED: ATOM     41  CBC HEM A1501      55.508  75.891  16.799 -0.64 +0.00    +0.000 C 
DOCKED: ENDBRANCH  17  40
DOCKED: BRANCH  12  42
DOCKED: ATOM     42  CAB HEM A1501      55.147  72.743   8.519 -0.56 +0.00    +0.001 C 
DOCKED: ATOM     43  CBB HEM A1501      54.539  71.811   9.226 -0.55 +0.00    +0.000 C 
DOCKED: ENDBRANCH  12  42
DOCKED: TORSDOF 8
DOCKED: TER
DOCKED: ENDMDL
________________________________________________________________________________


	BEGINNING GENETIC ALGORITHM DOCKING 8 of 100
Run: 8 Seed: 1331592353 1529193274 [ Run 8 of 100 GA/GALS ]
Beginning LAMARCKIAN GENETIC ALGORITHM (LGA), with a maximum of 2500000 energy evaluations.

Final-Value: -23.616


	FINAL GENETIC ALGORITHM DOCKED STATE
	_______________________________________________


Detailed state:  trans 54.946 78.894 10.594 quatxyzw -0.166114 0.974793 -0.148849 -0.005413 center 54.495 78.699 10.493 ntor 8 123.2660 42.8660 148.8100 -119.6816 17.7210 7.0857 156.8880 -172.0520
State:	 54.946  78.894  10.594  -0.166  0.975 -0.149 -179.380    123.27   42.87  148.81 -119.68   17.72    7.09  156.89 -172.05

DOCKED: MODEL        8
DOCKED: USER    Run = 8
DOCKED: USER    DPF = C:/Users/georg/Desktop/fall2024/4-Computational_Biology/Assignment/executables/HEM.dpf
DOCKED: USER  
DOCKED: USER    Estimated Free Energy of Binding    =  -20.69 kcal/mol  [=(1)+(2)+(3)-(4)]
DOCKED: USER    Estimated Inhibition Constant, Ki   =  687.46 aM (attomolar)  [Temperature = 298.15 K]
DOCKED: USER    
DOCKED: USER    (1) Final Intermolecular Energy     =  -23.07 kcal/mol
DOCKED: USER        vdW + Hbond + desolv Energy     =  -18.60 kcal/mol
DOCKED: USER        Electrostatic Energy            =   -4.47 kcal/mol
DOCKED: USER    (2) Final Total Internal Energy     =   -0.54 kcal/mol
DOCKED: USER    (3) Torsional Free Energy           =   +2.39 kcal/mol
DOCKED: USER    (4) Unbound System's Energy  [=(2)] =   -0.54 kcal/mol
DOCKED: USER    
DOCKED: USER    
DOCKED: USER    NEWDPF move HEM.pdbqt
DOCKED: USER    NEWDPF about 54.495000 78.699000 10.493000
DOCKED: USER    NEWDPF tran0 54.945756 78.893983 10.593651
DOCKED: USER    NEWDPF quaternion0 -0.166114 0.974793 -0.148849 -0.005413
DOCKED: USER    NEWDPF axisangle0 -0.166117 0.974807 -0.148851 -179.379709
DOCKED: USER    NEWDPF quat0 -0.166117 0.974807 -0.148851 -179.379709
DOCKED: USER    NEWDPF dihe0 123.27 42.87 148.81 -119.68 17.72 7.09 156.89 -172.05 
DOCKED: USER  keepresnum = 1 
DOCKED: USER  
DOCKED: REMARK  8 active torsions:
DOCKED: REMARK  status: ('A' for Active; 'I' for Inactive)
DOCKED: REMARK    1  A    between atoms: C2A_3624  and  CAA_3628 
DOCKED: REMARK    2  A    between atoms: CAA_3628  and  CBA_3629 
DOCKED: REMARK    3  A    between atoms: CBA_3629  and  CGA_3630 
DOCKED: REMARK    4  A    between atoms: C3B_3635  and  CAB_3638 
DOCKED: REMARK    5  A    between atoms: C3C_3642  and  CAC_3645 
DOCKED: REMARK    6  A    between atoms: C3D_3649  and  CAD_3652 
DOCKED: REMARK    7  A    between atoms: CAD_3652  and  CBD_3653 
DOCKED: REMARK    8  A    between atoms: CBD_3653  and  CGD_3654 
DOCKED: USER                              x       y       z     vdW  Elec       q    Type
DOCKED: USER                           _______ _______ _______ _____ _____    ______ ____
DOCKED: ROOT
DOCKED: ATOM      1  CHA HEM A1501      54.233  81.135  10.304 -0.27 +0.04    +0.038 A 
DOCKED: ATOM      2  CHB HEM A1501      54.515  77.326   7.378 -0.39 +0.03    +0.038 A 
DOCKED: ATOM      3  CHC HEM A1501      55.403  74.459  11.156 -0.41 +0.01    +0.038 A 
DOCKED: ATOM      4  CHD HEM A1501      55.186  78.283  14.079 -0.39 +0.02    +0.038 A 
DOCKED: ATOM      5  C1A HEM A1501      54.258  80.349   9.156 -0.26 +0.08    +0.079 A 
DOCKED: ATOM      6  C2A HEM A1501      54.079  80.807   7.774 -0.35 -0.01    -0.006 A 
DOCKED: ATOM      7  C3A HEM A1501      54.158  79.739   6.993 -0.37 -0.01    -0.007 A 
DOCKED: ATOM      8  C4A HEM A1501      54.395  78.618   7.851 -0.33 +0.06    +0.079 A 
DOCKED: ATOM      9  CMA HEM A1501      54.049  79.693   5.499 -0.48 +0.03    +0.032 C 
DOCKED: ATOM     10  C1B HEM A1501      54.752  76.199   8.143 -0.37 +0.05    +0.079 A 
DOCKED: ATOM     11  C2B HEM A1501      54.851  74.851   7.596 -0.48 -0.00    -0.003 A 
DOCKED: ATOM     12  C3B HEM A1501      55.085  74.047   8.665 -0.45 +0.01    +0.015 A 
DOCKED: ATOM     13  C4B HEM A1501      55.153  74.903   9.846 -0.37 +0.03    +0.083 A 
DOCKED: ATOM     14  CMB HEM A1501      54.705  74.501   6.141 -0.59 +0.02    +0.033 C 
DOCKED: ATOM     15  C1C HEM A1501      55.465  75.203  12.303 -0.35 +0.03    +0.079 A 
DOCKED: ATOM     16  C2C HEM A1501      55.809  74.699  13.604 -0.43 -0.00    -0.003 A 
DOCKED: ATOM     17  C3C HEM A1501      55.771  75.763  14.446 -0.39 +0.01    +0.015 A 
DOCKED: ATOM     18  C4C HEM A1501      55.387  76.934  13.632 -0.31 +0.03    +0.083 A 
DOCKED: ATOM     19  CMC HEM A1501      56.135  73.245  13.882 -0.54 +0.01    +0.033 C 
DOCKED: ATOM     20  C1D HEM A1501      54.843  79.427  13.317 -0.32 +0.04    +0.079 A 
DOCKED: ATOM     21  C2D HEM A1501      54.667  80.745  13.846 -0.39 -0.00    -0.007 A 
DOCKED: ATOM     22  C3D HEM A1501      54.398  81.552  12.788 -0.33 -0.00    -0.006 A 
DOCKED: ATOM     23  C4D HEM A1501      54.416  80.720  11.600 -0.23 +0.07    +0.079 A 
DOCKED: ATOM     24  CMD HEM A1501      54.764  81.147  15.264 -0.47 +0.01    +0.032 C 
DOCKED: ATOM     25  NA  HEM A1501      54.483  78.998   9.158 -0.18 -0.20    -0.246 N 
DOCKED: ATOM     26  NB  HEM A1501      54.925  76.190   9.506 -0.10 -0.12    -0.246 N 
DOCKED: ATOM     27  NC  HEM A1501      55.246  76.540  12.365 -0.13 -0.11    -0.246 N 
DOCKED: ATOM     28  ND  HEM A1501      54.693  79.438  11.958 -0.12 -0.17    -0.246 N 
DOCKED: ATOM     29 FE   HEM A1501      54.847  77.796  10.768 -0.07 +0.00    +0.000 Fe
DOCKED: ENDROOT
DOCKED: BRANCH   6  30
DOCKED: ATOM     30  CAA HEM A1501      53.854  82.197   7.294 -0.44 +0.06    +0.039 C 
DOCKED: BRANCH  30  31
DOCKED: ATOM     31  CBA HEM A1501      52.410  82.425   6.892 -0.58 +0.16    +0.102 C 
DOCKED: BRANCH  31  32
DOCKED: ATOM     32  CGA HEM A1501      52.178  83.684   6.103 -0.65 +0.35    +0.186 C 
DOCKED: ATOM     33  O1A HEM A1501      52.931  84.663   6.310 -1.22 -1.70    -0.647 OA
DOCKED: ATOM     34  O2A HEM A1501      51.275  83.686   5.241 -1.04 -1.26    -0.647 OA
DOCKED: ENDBRANCH  31  32
DOCKED: ENDBRANCH  30  31
DOCKED: ENDBRANCH   6  30
DOCKED: BRANCH  22  35
DOCKED: ATOM     35  CAD HEM A1501      54.143  83.007  12.897 -0.39 +0.04    +0.039 C 
DOCKED: BRANCH  35  36
DOCKED: ATOM     36  CBD HEM A1501      52.668  83.311  13.158 -0.52 +0.11    +0.102 C 
DOCKED: BRANCH  36  37
DOCKED: ATOM     37  CGD HEM A1501      52.341  84.789  13.056 -0.45 +0.27    +0.186 C 
DOCKED: ATOM     38  O1D HEM A1501      53.159  85.416  12.348 -0.47 -1.51    -0.647 OA
DOCKED: ATOM     39  O2D HEM A1501      51.282  85.321  13.615 -0.67 -0.95    -0.647 OA
DOCKED: ENDBRANCH  36  37
DOCKED: ENDBRANCH  35  36
DOCKED: ENDBRANCH  22  35
DOCKED: BRANCH  17  40
DOCKED: ATOM     40  CAC HEM A1501      56.040  75.793  15.889 -0.55 +0.00    +0.001 C 
DOCKED: ATOM     41  CBC HEM A1501      55.177  76.127  16.860 -0.62 +0.00    +0.000 C 
DOCKED: ENDBRANCH  17  40
DOCKED: BRANCH  12  42
DOCKED: ATOM     42  CAB HEM A1501      55.266  72.580   8.761 -0.55 +0.00    +0.001 C 
DOCKED: ATOM     43  CBB HEM A1501      55.578  71.695   7.834 -0.55 +0.00    +0.000 C 
DOCKED: ENDBRANCH  12  42
DOCKED: TORSDOF 8
DOCKED: TER
DOCKED: ENDMDL
________________________________________________________________________________


	BEGINNING GENETIC ALGORITHM DOCKING 9 of 100
Run: 9 Seed: 263892646 611985666 [ Run 9 of 100 GA/GALS ]
Beginning LAMARCKIAN GENETIC ALGORITHM (LGA), with a maximum of 2500000 energy evaluations.

Final-Value: -23.484


	FINAL GENETIC ALGORITHM DOCKED STATE
	_______________________________________________


Detailed state:  trans 54.958 78.750 10.509 quatxyzw -0.150244 0.978042 -0.144426 -0.001492 center 54.495 78.699 10.493 ntor 8 112.3063 166.3588 -43.8649 -112.4334 26.3587 10.4324 172.2866 -173.6986
State:	 54.958  78.750  10.509  -0.150  0.978 -0.144 -179.829    112.31  166.36  -43.86 -112.43   26.36   10.43  172.29 -173.70

DOCKED: MODEL        9
DOCKED: USER    Run = 9
DOCKED: USER    DPF = C:/Users/georg/Desktop/fall2024/4-Computational_Biology/Assignment/executables/HEM.dpf
DOCKED: USER  
DOCKED: USER    Estimated Free Energy of Binding    =  -20.54 kcal/mol  [=(1)+(2)+(3)-(4)]
DOCKED: USER    Estimated Inhibition Constant, Ki   =  872.97 aM (attomolar)  [Temperature = 298.15 K]
DOCKED: USER    
DOCKED: USER    (1) Final Intermolecular Energy     =  -22.93 kcal/mol
DOCKED: USER        vdW + Hbond + desolv Energy     =  -18.36 kcal/mol
DOCKED: USER        Electrostatic Energy            =   -4.57 kcal/mol
DOCKED: USER    (2) Final Total Internal Energy     =   -0.55 kcal/mol
DOCKED: USER    (3) Torsional Free Energy           =   +2.39 kcal/mol
DOCKED: USER    (4) Unbound System's Energy  [=(2)] =   -0.55 kcal/mol
DOCKED: USER    
DOCKED: USER    
DOCKED: USER    NEWDPF move HEM.pdbqt
DOCKED: USER    NEWDPF about 54.495000 78.699000 10.493000
DOCKED: USER    NEWDPF tran0 54.957743 78.750399 10.509355
DOCKED: USER    NEWDPF quaternion0 -0.150244 0.978042 -0.144426 -0.001492
DOCKED: USER    NEWDPF axisangle0 -0.150244 0.978043 -0.144426 -179.829020
DOCKED: USER    NEWDPF quat0 -0.150244 0.978043 -0.144426 -179.829020
DOCKED: USER    NEWDPF dihe0 112.31 166.36 -43.86 -112.43 26.36 10.43 172.29 -173.70 
DOCKED: USER  keepresnum = 1 
DOCKED: USER  
DOCKED: REMARK  8 active torsions:
DOCKED: REMARK  status: ('A' for Active; 'I' for Inactive)
DOCKED: REMARK    1  A    between atoms: C2A_3624  and  CAA_3628 
DOCKED: REMARK    2  A    between atoms: CAA_3628  and  CBA_3629 
DOCKED: REMARK    3  A    between atoms: CBA_3629  and  CGA_3630 
DOCKED: REMARK    4  A    between atoms: C3B_3635  and  CAB_3638 
DOCKED: REMARK    5  A    between atoms: C3C_3642  and  CAC_3645 
DOCKED: REMARK    6  A    between atoms: C3D_3649  and  CAD_3652 
DOCKED: REMARK    7  A    between atoms: CAD_3652  and  CBD_3653 
DOCKED: REMARK    8  A    between atoms: CBD_3653  and  CGD_3654 
DOCKED: USER                              x       y       z     vdW  Elec       q    Type
DOCKED: USER                           _______ _______ _______ _____ _____    ______ ____
DOCKED: ROOT
DOCKED: ATOM      1  CHA HEM A1501      54.318  81.016  10.242 -0.27 +0.04    +0.038 A 
DOCKED: ATOM      2  CHB HEM A1501      54.462  77.225   7.283 -0.41 +0.03    +0.038 A 
DOCKED: ATOM      3  CHC HEM A1501      55.270  74.298  11.032 -0.41 +0.01    +0.038 A 
DOCKED: ATOM      4  CHD HEM A1501      55.193  78.102  13.988 -0.38 +0.02    +0.038 A 
DOCKED: ATOM      5  C1A HEM A1501      54.313  80.240   9.087 -0.26 +0.08    +0.079 A 
DOCKED: ATOM      6  C2A HEM A1501      54.143  80.715   7.710 -0.35 -0.01    -0.006 A 
DOCKED: ATOM      7  C3A HEM A1501      54.183  79.652   6.920 -0.37 -0.01    -0.007 A 
DOCKED: ATOM      8  C4A HEM A1501      54.387  78.517   7.767 -0.33 +0.06    +0.079 A 
DOCKED: ATOM      9  CMA HEM A1501      54.066  79.622   5.426 -0.49 +0.03    +0.032 C 
DOCKED: ATOM     10  C1B HEM A1501      54.664  76.084   8.037 -0.38 +0.05    +0.079 A 
DOCKED: ATOM     11  C2B HEM A1501      54.716  74.738   7.478 -0.49 -0.00    -0.003 A 
DOCKED: ATOM     12  C3B HEM A1501      54.928  73.918   8.540 -0.45 +0.01    +0.015 A 
DOCKED: ATOM     13  C4B HEM A1501      55.029  74.762   9.727 -0.38 +0.03    +0.083 A 
DOCKED: ATOM     14  CMB HEM A1501      54.552  74.406   6.021 -0.60 +0.02    +0.033 C 
DOCKED: ATOM     15  C1C HEM A1501      55.362  75.030  12.185 -0.35 +0.03    +0.079 A 
DOCKED: ATOM     16  C2C HEM A1501      55.694  74.503  13.480 -0.43 -0.00    -0.003 A 
DOCKED: ATOM     17  C3C HEM A1501      55.695  75.561  14.331 -0.38 +0.01    +0.015 A 
DOCKED: ATOM     18  C4C HEM A1501      55.347  76.751  13.529 -0.31 +0.03    +0.083 A 
DOCKED: ATOM     19  CMC HEM A1501      55.973  73.038  13.745 -0.53 +0.01    +0.033 C 
DOCKED: ATOM     20  C1D HEM A1501      54.885  79.263  13.237 -0.31 +0.04    +0.079 A 
DOCKED: ATOM     21  C2D HEM A1501      54.755  80.582  13.779 -0.38 -0.00    -0.007 A 
DOCKED: ATOM     22  C3D HEM A1501      54.508  81.406  12.728 -0.31 -0.00    -0.006 A 
DOCKED: ATOM     23  C4D HEM A1501      54.494  80.584  11.533 -0.22 +0.06    +0.079 A 
DOCKED: ATOM     24  CMD HEM A1501      54.871  80.969  15.199 -0.45 +0.01    +0.032 C 
DOCKED: ATOM     25  NA  HEM A1501      54.492  78.882   9.077 -0.18 -0.20    -0.246 N 
DOCKED: ATOM     26  NB  HEM A1501      54.843  76.058   9.399 -0.15 -0.12    -0.246 N 
DOCKED: ATOM     27  NC  HEM A1501      55.188  76.373  12.260 -0.12 -0.10    -0.246 N 
DOCKED: ATOM     28  ND  HEM A1501      54.729  79.291  11.879 -0.10 -0.17    -0.246 N 
DOCKED: ATOM     29 FE   HEM A1501      54.824  77.655  10.675 -0.07 +0.00    +0.000 Fe
DOCKED: ENDROOT
DOCKED: BRANCH   6  30
DOCKED: ATOM     30  CAA HEM A1501      53.962  82.116   7.243 -0.43 +0.05    +0.039 C 
DOCKED: BRANCH  30  31
DOCKED: ATOM     31  CBA HEM A1501      52.498  82.511   7.207 -0.55 +0.16    +0.102 C 
DOCKED: BRANCH  31  32
DOCKED: ATOM     32  CGA HEM A1501      52.188  83.657   6.284 -0.64 +0.36    +0.186 C 
DOCKED: ATOM     33  O1A HEM A1501      51.166  83.581   5.564 -1.01 -1.32    -0.647 OA
DOCKED: ATOM     34  O2A HEM A1501      52.936  84.656   6.307 -1.22 -1.70    -0.647 OA
DOCKED: ENDBRANCH  31  32
DOCKED: ENDBRANCH  30  31
DOCKED: ENDBRANCH   6  30
DOCKED: BRANCH  22  35
DOCKED: ATOM     35  CAD HEM A1501      54.302  82.868  12.851 -0.37 +0.04    +0.039 C 
DOCKED: BRANCH  35  36
DOCKED: ATOM     36  CBD HEM A1501      52.833  83.221  13.081 -0.51 +0.11    +0.102 C 
DOCKED: BRANCH  36  37
DOCKED: ATOM     37  CGD HEM A1501      52.545  84.701  12.912 -0.44 +0.28    +0.186 C 
DOCKED: ATOM     38  O1D HEM A1501      53.299  85.245  12.075 -0.51 -1.54    -0.647 OA
DOCKED: ATOM     39  O2D HEM A1501      51.575  85.312  13.545 -0.54 -0.98    -0.647 OA
DOCKED: ENDBRANCH  36  37
DOCKED: ENDBRANCH  35  36
DOCKED: ENDBRANCH  22  35
DOCKED: BRANCH  17  40
DOCKED: ATOM     40  CAC HEM A1501      55.972  75.570  15.773 -0.54 +0.00    +0.001 C 
DOCKED: ATOM     41  CBC HEM A1501      55.207  76.110  16.734 -0.62 +0.00    +0.000 C 
DOCKED: ENDBRANCH  17  40
DOCKED: BRANCH  12  42
DOCKED: ATOM     42  CAB HEM A1501      55.061  72.445   8.622 -0.57 +0.00    +0.001 C 
DOCKED: ATOM     43  CBB HEM A1501      55.843  71.698   9.376 -0.55 +0.00    +0.000 C 
DOCKED: ENDBRANCH  12  42
DOCKED: TORSDOF 8
DOCKED: TER
DOCKED: ENDMDL
________________________________________________________________________________


	BEGINNING GENETIC ALGORITHM DOCKING 10 of 100
Run: 10 Seed: 1210281760 1925519003 [ Run 10 of 100 GA/GALS ]
Beginning LAMARCKIAN GENETIC ALGORITHM (LGA), with a maximum of 2500000 energy evaluations.

Final-Value: -23.335


	FINAL GENETIC ALGORITHM DOCKED STATE
	_______________________________________________


Detailed state:  trans 54.872 78.971 10.405 quatxyzw -0.187387 0.963322 -0.190082 -0.027667 center 54.495 78.699 10.493 ntor 8 180.0000 -66.7708 -53.4841 -165.6213 4.8963 -21.9804 -177.2558 -154.0403
State:	 54.872  78.971  10.405  -0.187  0.964 -0.190 -176.829    180.00  -66.77  -53.48 -165.62    4.90  -21.98 -177.26 -154.04

DOCKED: MODEL       10
DOCKED: USER    Run = 10
DOCKED: USER    DPF = C:/Users/georg/Desktop/fall2024/4-Computational_Biology/Assignment/executables/HEM.dpf
DOCKED: USER  
DOCKED: USER    Estimated Free Energy of Binding    =  -20.36 kcal/mol  [=(1)+(2)+(3)-(4)]
DOCKED: USER    Estimated Inhibition Constant, Ki   =    1.19 fM (femtomolar)  [Temperature = 298.15 K]
DOCKED: USER    
DOCKED: USER    (1) Final Intermolecular Energy     =  -22.75 kcal/mol
DOCKED: USER        vdW + Hbond + desolv Energy     =  -18.53 kcal/mol
DOCKED: USER        Electrostatic Energy            =   -4.22 kcal/mol
DOCKED: USER    (2) Final Total Internal Energy     =   -0.59 kcal/mol
DOCKED: USER    (3) Torsional Free Energy           =   +2.39 kcal/mol
DOCKED: USER    (4) Unbound System's Energy  [=(2)] =   -0.59 kcal/mol
DOCKED: USER    
DOCKED: USER    
DOCKED: USER    NEWDPF move HEM.pdbqt
DOCKED: USER    NEWDPF about 54.495000 78.699000 10.493000
DOCKED: USER    NEWDPF tran0 54.872309 78.970810 10.405202
DOCKED: USER    NEWDPF quaternion0 -0.187387 0.963322 -0.190082 -0.027667
DOCKED: USER    NEWDPF axisangle0 -0.187459 0.963691 -0.190155 -176.829177
DOCKED: USER    NEWDPF quat0 -0.187459 0.963691 -0.190155 -176.829177
DOCKED: USER    NEWDPF dihe0 180.00 -66.77 -53.48 -165.62 4.90 -21.98 -177.26 -154.04 
DOCKED: USER  keepresnum = 1 
DOCKED: USER  
DOCKED: REMARK  8 active torsions:
DOCKED: REMARK  status: ('A' for Active; 'I' for Inactive)
DOCKED: REMARK    1  A    between atoms: C2A_3624  and  CAA_3628 
DOCKED: REMARK    2  A    between atoms: CAA_3628  and  CBA_3629 
DOCKED: REMARK    3  A    between atoms: CBA_3629  and  CGA_3630 
DOCKED: REMARK    4  A    between atoms: C3B_3635  and  CAB_3638 
DOCKED: REMARK    5  A    between atoms: C3C_3642  and  CAC_3645 
DOCKED: REMARK    6  A    between atoms: C3D_3649  and  CAD_3652 
DOCKED: REMARK    7  A    between atoms: CAD_3652  and  CBD_3653 
DOCKED: REMARK    8  A    between atoms: CBD_3653  and  CGD_3654 
DOCKED: USER                              x       y       z     vdW  Elec       q    Type
DOCKED: USER                           _______ _______ _______ _____ _____    ______ ____
DOCKED: ROOT
DOCKED: ATOM      1  CHA HEM A1501      54.066  81.142   9.907 -0.30 +0.04    +0.038 A 
DOCKED: ATOM      2  CHB HEM A1501      54.690  77.145   7.304 -0.38 +0.02    +0.038 A 
DOCKED: ATOM      3  CHC HEM A1501      55.518  74.622  11.333 -0.40 +0.01    +0.038 A 
DOCKED: ATOM      4  CHD HEM A1501      54.959  78.638  13.935 -0.39 +0.02    +0.038 A 
DOCKED: ATOM      5  C1A HEM A1501      54.190  80.275   8.827 -0.28 +0.08    +0.079 A 
DOCKED: ATOM      6  C2A HEM A1501      54.062  80.617   7.406 -0.36 -0.01    -0.006 A 
DOCKED: ATOM      7  C3A HEM A1501      54.235  79.499   6.716 -0.38 -0.01    -0.007 A 
DOCKED: ATOM      8  C4A HEM A1501      54.482  78.461   7.669 -0.33 +0.06    +0.079 A 
DOCKED: ATOM      9  CMA HEM A1501      54.207  79.335   5.226 -0.50 +0.02    +0.032 C 
DOCKED: ATOM     10  C1B HEM A1501      54.942  76.092   8.165 -0.35 +0.04    +0.079 A 
DOCKED: ATOM     11  C2B HEM A1501      55.136  74.714   7.730 -0.47 -0.00    -0.003 A 
DOCKED: ATOM     12  C3B HEM A1501      55.353  74.006   8.869 -0.45 +0.01    +0.015 A 
DOCKED: ATOM     13  C4B HEM A1501      55.316  74.952   9.981 -0.37 +0.03    +0.083 A 
DOCKED: ATOM     14  CMB HEM A1501      55.084  74.249   6.301 -0.58 +0.02    +0.033 C 
DOCKED: ATOM     15  C1C HEM A1501      55.483  75.452  12.420 -0.33 +0.03    +0.079 A 
DOCKED: ATOM     16  C2C HEM A1501      55.782  75.066  13.771 -0.41 -0.00    -0.003 A 
DOCKED: ATOM     17  C3C HEM A1501      55.647  76.187  14.525 -0.39 +0.01    +0.015 A 
DOCKED: ATOM     18  C4C HEM A1501      55.249  77.271  13.605 -0.32 +0.04    +0.083 A 
DOCKED: ATOM     19  CMC HEM A1501      56.164  73.657  14.177 -0.54 +0.01    +0.033 C 
DOCKED: ATOM     20  C1D HEM A1501      54.600  79.701  13.070 -0.30 +0.05    +0.079 A 
DOCKED: ATOM     21  C2D HEM A1501      54.331  81.044  13.486 -0.39 -0.00    -0.007 A 
DOCKED: ATOM     22  C3D HEM A1501      54.079  81.753  12.356 -0.35 -0.01    -0.006 A 
DOCKED: ATOM     23  C4D HEM A1501      54.201  80.836  11.239 -0.21 +0.07    +0.079 A 
DOCKED: ATOM     24  CMD HEM A1501      54.333  81.556  14.872 -0.46 +0.02    +0.032 C 
DOCKED: ATOM     25  NA  HEM A1501      54.481  78.942   8.945 -0.20 -0.20    -0.246 N 
DOCKED: ATOM     26  NB  HEM A1501      55.043  76.195   9.532 -0.13 -0.12    -0.246 N 
DOCKED: ATOM     27  NC  HEM A1501      55.195  76.776  12.367 -0.10 -0.11    -0.246 N 
DOCKED: ATOM     28  ND  HEM A1501      54.521  79.602  11.709 -0.10 -0.18    -0.246 N 
DOCKED: ATOM     29 FE   HEM A1501      54.819  77.885  10.660 -0.07 +0.00    +0.000 Fe
DOCKED: ENDROOT
DOCKED: BRANCH   6  30
DOCKED: ATOM     30  CAA HEM A1501      53.794  81.954   6.809 -0.47 +0.05    +0.039 C 
DOCKED: BRANCH  30  31
DOCKED: ATOM     31  CBA HEM A1501      52.326  82.324   6.898 -0.57 +0.16    +0.102 C 
DOCKED: BRANCH  31  32
DOCKED: ATOM     32  CGA HEM A1501      51.986  83.657   6.291 -0.62 +0.36    +0.186 C 
DOCKED: ATOM     33  O1A HEM A1501      51.060  83.708   5.449 -1.01 -1.34    -0.647 OA
DOCKED: ATOM     34  O2A HEM A1501      52.608  84.665   6.686 -1.05 -1.74    -0.647 OA
DOCKED: ENDBRANCH  31  32
DOCKED: ENDBRANCH  30  31
DOCKED: ENDBRANCH   6  30
DOCKED: BRANCH  22  35
DOCKED: ATOM     35  CAD HEM A1501      53.747  83.197  12.340 -0.44 +0.05    +0.039 C 
DOCKED: BRANCH  35  36
DOCKED: ATOM     36  CBD HEM A1501      52.365  83.473  12.931 -0.49 +0.12    +0.102 C 
DOCKED: BRANCH  36  37
DOCKED: ATOM     37  CGD HEM A1501      52.185  84.913  13.372 -0.48 +0.27    +0.186 C 
DOCKED: ATOM     38  O1D HEM A1501      53.273  85.487  13.595 -0.48 -1.10    -0.647 OA
DOCKED: ATOM     39  O2D HEM A1501      51.011  85.489  13.453 -0.78 -0.99    -0.647 OA
DOCKED: ENDBRANCH  36  37
DOCKED: ENDBRANCH  35  36
DOCKED: ENDBRANCH  22  35
DOCKED: BRANCH  17  40
DOCKED: ATOM     40  CAC HEM A1501      55.838  76.340  15.972 -0.56 +0.00    +0.001 C 
DOCKED: ATOM     41  CBC HEM A1501      55.158  75.711  16.943 -0.64 +0.00    +0.000 C 
DOCKED: ENDBRANCH  17  40
DOCKED: BRANCH  12  42
DOCKED: ATOM     42  CAB HEM A1501      55.601  72.563   9.087 -0.52 +0.00    +0.001 C 
DOCKED: ATOM     43  CBB HEM A1501      54.758  71.575   9.314 -0.56 +0.00    +0.000 C 
DOCKED: ENDBRANCH  12  42
DOCKED: TORSDOF 8
DOCKED: TER
DOCKED: ENDMDL
________________________________________________________________________________


	BEGINNING GENETIC ALGORITHM DOCKING 11 of 100
Run: 11 Seed: 630103485 1638956475 [ Run 11 of 100 GA/GALS ]
Beginning LAMARCKIAN GENETIC ALGORITHM (LGA), with a maximum of 2500000 energy evaluations.

Final-Value: -23.292


	FINAL GENETIC ALGORITHM DOCKED STATE
	_______________________________________________


Detailed state:  trans 54.941 79.017 10.705 quatxyzw -0.182077 0.971912 -0.148718 -0.010854 center 54.495 78.699 10.493 ntor 8 140.8129 -81.4453 -169.9410 -165.5583 -1.3300 1.1377 133.7072 -164.4683
State:	 54.941  79.017  10.705  -0.182  0.972 -0.149 -178.756    140.81  -81.45 -169.94 -165.56   -1.33    1.14  133.71 -164.47

DOCKED: MODEL       11
DOCKED: USER    Run = 11
DOCKED: USER    DPF = C:/Users/georg/Desktop/fall2024/4-Computational_Biology/Assignment/executables/HEM.dpf
DOCKED: USER  
DOCKED: USER    Estimated Free Energy of Binding    =  -20.41 kcal/mol  [=(1)+(2)+(3)-(4)]
DOCKED: USER    Estimated Inhibition Constant, Ki   =    1.09 fM (femtomolar)  [Temperature = 298.15 K]
DOCKED: USER    
DOCKED: USER    (1) Final Intermolecular Energy     =  -22.80 kcal/mol
DOCKED: USER        vdW + Hbond + desolv Energy     =  -18.61 kcal/mol
DOCKED: USER        Electrostatic Energy            =   -4.19 kcal/mol
DOCKED: USER    (2) Final Total Internal Energy     =   -0.49 kcal/mol
DOCKED: USER    (3) Torsional Free Energy           =   +2.39 kcal/mol
DOCKED: USER    (4) Unbound System's Energy  [=(2)] =   -0.49 kcal/mol
DOCKED: USER    
DOCKED: USER    
DOCKED: USER    NEWDPF move HEM.pdbqt
DOCKED: USER    NEWDPF about 54.495000 78.699000 10.493000
DOCKED: USER    NEWDPF tran0 54.941330 79.017165 10.705374
DOCKED: USER    NEWDPF quaternion0 -0.182077 0.971912 -0.148718 -0.010854
DOCKED: USER    NEWDPF axisangle0 -0.182088 0.971969 -0.148727 -178.756194
DOCKED: USER    NEWDPF quat0 -0.182088 0.971969 -0.148727 -178.756194
DOCKED: USER    NEWDPF dihe0 140.81 -81.45 -169.94 -165.56 -1.33 1.14 133.71 -164.47 
DOCKED: USER  keepresnum = 1 
DOCKED: USER  
DOCKED: REMARK  8 active torsions:
DOCKED: REMARK  status: ('A' for Active; 'I' for Inactive)
DOCKED: REMARK    1  A    between atoms: C2A_3624  and  CAA_3628 
DOCKED: REMARK    2  A    between atoms: CAA_3628  and  CBA_3629 
DOCKED: REMARK    3  A    between atoms: CBA_3629  and  CGA_3630 
DOCKED: REMARK    4  A    between atoms: C3B_3635  and  CAB_3638 
DOCKED: REMARK    5  A    between atoms: C3C_3642  and  CAC_3645 
DOCKED: REMARK    6  A    between atoms: C3D_3649  and  CAD_3652 
DOCKED: REMARK    7  A    between atoms: CAD_3652  and  CBD_3653 
DOCKED: REMARK    8  A    between atoms: CBD_3653  and  CGD_3654 
DOCKED: USER                              x       y       z     vdW  Elec       q    Type
DOCKED: USER                           _______ _______ _______ _____ _____    ______ ____
DOCKED: ROOT
DOCKED: ATOM      1  CHA HEM A1501      54.155  81.233  10.413 -0.28 +0.04    +0.038 A 
DOCKED: ATOM      2  CHB HEM A1501      54.582  77.440   7.486 -0.38 +0.03    +0.038 A 
DOCKED: ATOM      3  CHC HEM A1501      55.545  74.600  11.266 -0.40 +0.01    +0.038 A 
DOCKED: ATOM      4  CHD HEM A1501      55.182  78.411  14.191 -0.39 +0.02    +0.038 A 
DOCKED: ATOM      5  C1A HEM A1501      54.213  80.450   9.265 -0.26 +0.08    +0.079 A 
DOCKED: ATOM      6  C2A HEM A1501      54.027  80.903   7.882 -0.36 -0.01    -0.006 A 
DOCKED: ATOM      7  C3A HEM A1501      54.147  79.839   7.101 -0.36 -0.01    -0.007 A 
DOCKED: ATOM      8  C4A HEM A1501      54.416  78.726   7.960 -0.32 +0.06    +0.079 A 
DOCKED: ATOM      9  CMA HEM A1501      54.048  79.791   5.607 -0.48 +0.03    +0.032 C 
DOCKED: ATOM     10  C1B HEM A1501      54.853  76.320   8.251 -0.35 +0.05    +0.079 A 
DOCKED: ATOM     11  C2B HEM A1501      55.000  74.976   7.703 -0.47 -0.00    -0.003 A 
DOCKED: ATOM     12  C3B HEM A1501      55.255  74.179   8.773 -0.45 +0.01    +0.015 A 
DOCKED: ATOM     13  C4B HEM A1501      55.287  75.037   9.955 -0.36 +0.03    +0.083 A 
DOCKED: ATOM     14  CMB HEM A1501      54.875  74.624   6.247 -0.59 +0.02    +0.033 C 
DOCKED: ATOM     15  C1C HEM A1501      55.575  75.344  12.414 -0.34 +0.03    +0.079 A 
DOCKED: ATOM     16  C2C HEM A1501      55.928  74.850  13.717 -0.43 -0.00    -0.003 A 
DOCKED: ATOM     17  C3C HEM A1501      55.849  75.912  14.560 -0.40 +0.01    +0.015 A 
DOCKED: ATOM     18  C4C HEM A1501      55.431  77.069  13.745 -0.32 +0.03    +0.083 A 
DOCKED: ATOM     19  CMC HEM A1501      56.301  73.408  13.995 -0.55 +0.01    +0.033 C 
DOCKED: ATOM     20  C1D HEM A1501      54.805  79.544  13.428 -0.33 +0.04    +0.079 A 
DOCKED: ATOM     21  C2D HEM A1501      54.582  80.854  13.958 -0.40 -0.00    -0.007 A 
DOCKED: ATOM     22  C3D HEM A1501      54.291  81.652  12.899 -0.35 -0.00    -0.006 A 
DOCKED: ATOM     23  C4D HEM A1501      54.345  80.823  11.710 -0.24 +0.07    +0.079 A 
DOCKED: ATOM     24  CMD HEM A1501      54.657  81.258  15.377 -0.47 +0.01    +0.032 C 
DOCKED: ATOM     25  NA  HEM A1501      54.483  79.107   9.267 -0.18 -0.20    -0.246 N 
DOCKED: ATOM     26  NB  HEM A1501      55.018  76.315   9.615 -0.07 -0.12    -0.246 N 
DOCKED: ATOM     27  NC  HEM A1501      55.311  76.673  12.476 -0.15 -0.11    -0.246 N 
DOCKED: ATOM     28  ND  HEM A1501      54.662  79.551  12.069 -0.13 -0.17    -0.246 N 
DOCKED: ATOM     29 FE   HEM A1501      54.879  77.916  10.878 -0.07 +0.00    +0.000 Fe
DOCKED: ENDROOT
DOCKED: BRANCH   6  30
DOCKED: ATOM     30  CAA HEM A1501      53.758  82.286   7.403 -0.44 +0.06    +0.039 C 
DOCKED: BRANCH  30  31
DOCKED: ATOM     31  CBA HEM A1501      52.545  82.338   6.494 -0.58 +0.15    +0.102 C 
DOCKED: BRANCH  31  32
DOCKED: ATOM     32  CGA HEM A1501      52.144  83.726   6.075 -0.65 +0.35    +0.186 C 
DOCKED: ATOM     33  O1A HEM A1501      52.933  84.670   6.313 -1.22 -1.71    -0.647 OA
DOCKED: ATOM     34  O2A HEM A1501      51.064  83.873   5.467 -0.98 -1.35    -0.647 OA
DOCKED: ENDBRANCH  31  32
DOCKED: ENDBRANCH  30  31
DOCKED: ENDBRANCH   6  30
DOCKED: BRANCH  22  35
DOCKED: ATOM     35  CAD HEM A1501      53.987  83.099  13.008 -0.42 +0.04    +0.039 C 
DOCKED: BRANCH  35  36
DOCKED: ATOM     36  CBD HEM A1501      52.543  83.347  13.443 -0.52 +0.10    +0.102 C 
DOCKED: BRANCH  36  37
DOCKED: ATOM     37  CGD HEM A1501      52.184  84.821  13.489 -0.49 +0.26    +0.186 C 
DOCKED: ATOM     38  O1D HEM A1501      53.188  85.557  13.606 -0.42 -1.13    -0.647 OA
DOCKED: ATOM     39  O2D HEM A1501      50.954  85.255  13.367 -0.69 -0.92    -0.647 OA
DOCKED: ENDBRANCH  36  37
DOCKED: ENDBRANCH  35  36
DOCKED: ENDBRANCH  22  35
DOCKED: BRANCH  17  40
DOCKED: ATOM     40  CAC HEM A1501      56.109  75.949  16.004 -0.56 +0.00    +0.001 C 
DOCKED: ATOM     41  CBC HEM A1501      55.194  75.926  16.985 -0.65 +0.00    +0.000 C 
DOCKED: ENDBRANCH  17  40
DOCKED: BRANCH  12  42
DOCKED: ATOM     42  CAB HEM A1501      55.485  72.719   8.868 -0.53 +0.00    +0.001 C 
DOCKED: ATOM     43  CBB HEM A1501      54.697  71.757   9.305 -0.56 +0.00    +0.000 C 
DOCKED: ENDBRANCH  12  42
DOCKED: TORSDOF 8
DOCKED: TER
DOCKED: ENDMDL
________________________________________________________________________________


	BEGINNING GENETIC ALGORITHM DOCKING 12 of 100
Run: 12 Seed: 1975397890 378386839 [ Run 12 of 100 GA/GALS ]
Beginning LAMARCKIAN GENETIC ALGORITHM (LGA), with a maximum of 2500000 energy evaluations.

Final-Value: -21.346


	FINAL GENETIC ALGORITHM DOCKED STATE
	_______________________________________________


Detailed state:  trans 54.937 78.985 10.627 quatxyzw 0.176333 -0.971532 0.154394 0.034556 center 54.495 78.699 10.493 ntor 8 -168.2556 -87.8194 15.2608 -15.2780 -15.1903 -81.4299 132.8813 -22.2453
State:	 54.937  78.985  10.627   0.176 -0.972  0.154 176.039   -168.26  -87.82   15.26  -15.28  -15.19  -81.43  132.88  -22.25

DOCKED: MODEL       12
DOCKED: USER    Run = 12
DOCKED: USER    DPF = C:/Users/georg/Desktop/fall2024/4-Computational_Biology/Assignment/executables/HEM.dpf
DOCKED: USER  
DOCKED: USER    Estimated Free Energy of Binding    =  -18.47 kcal/mol  [=(1)+(2)+(3)-(4)]
DOCKED: USER    Estimated Inhibition Constant, Ki   =   28.89 fM (femtomolar)  [Temperature = 298.15 K]
DOCKED: USER    
DOCKED: USER    (1) Final Intermolecular Energy     =  -20.86 kcal/mol
DOCKED: USER        vdW + Hbond + desolv Energy     =  -16.90 kcal/mol
DOCKED: USER        Electrostatic Energy            =   -3.96 kcal/mol
DOCKED: USER    (2) Final Total Internal Energy     =   -0.49 kcal/mol
DOCKED: USER    (3) Torsional Free Energy           =   +2.39 kcal/mol
DOCKED: USER    (4) Unbound System's Energy  [=(2)] =   -0.49 kcal/mol
DOCKED: USER    
DOCKED: USER    
DOCKED: USER    NEWDPF move HEM.pdbqt
DOCKED: USER    NEWDPF about 54.495000 78.699000 10.493000
DOCKED: USER    NEWDPF tran0 54.937345 78.985410 10.626588
DOCKED: USER    NEWDPF quaternion0 0.176333 -0.971532 0.154394 0.034556
DOCKED: USER    NEWDPF axisangle0 0.176438 -0.972113 0.154487 176.039396
DOCKED: USER    NEWDPF quat0 0.176438 -0.972113 0.154487 176.039396
DOCKED: USER    NEWDPF dihe0 -168.26 -87.82 15.26 -15.28 -15.19 -81.43 132.88 -22.25 
DOCKED: USER  keepresnum = 1 
DOCKED: USER  
DOCKED: REMARK  8 active torsions:
DOCKED: REMARK  status: ('A' for Active; 'I' for Inactive)
DOCKED: REMARK    1  A    between atoms: C2A_3624  and  CAA_3628 
DOCKED: REMARK    2  A    between atoms: CAA_3628  and  CBA_3629 
DOCKED: REMARK    3  A    between atoms: CBA_3629  and  CGA_3630 
DOCKED: REMARK    4  A    between atoms: C3B_3635  and  CAB_3638 
DOCKED: REMARK    5  A    between atoms: C3C_3642  and  CAC_3645 
DOCKED: REMARK    6  A    between atoms: C3D_3649  and  CAD_3652 
DOCKED: REMARK    7  A    between atoms: CAD_3652  and  CBD_3653 
DOCKED: REMARK    8  A    between atoms: CBD_3653  and  CGD_3654 
DOCKED: USER                              x       y       z     vdW  Elec       q    Type
DOCKED: USER                           _______ _______ _______ _____ _____    ______ ____
DOCKED: ROOT
DOCKED: ATOM      1  CHA HEM A1501      54.176  81.203  10.291 -0.28 +0.04    +0.038 A 
DOCKED: ATOM      2  CHB HEM A1501      54.733  77.401   7.397 -0.36 +0.03    +0.038 A 
DOCKED: ATOM      3  CHC HEM A1501      55.494  74.567  11.227 -0.41 +0.01    +0.038 A 
DOCKED: ATOM      4  CHD HEM A1501      55.002  78.387  14.122 -0.40 +0.02    +0.038 A 
DOCKED: ATOM      5  C1A HEM A1501      54.288  80.418   9.148 -0.26 +0.08    +0.079 A 
DOCKED: ATOM      6  C2A HEM A1501      54.172  80.867   7.757 -0.34 -0.01    -0.006 A 
DOCKED: ATOM      7  C3A HEM A1501      54.327  79.802   6.985 -0.35 -0.01    -0.007 A 
DOCKED: ATOM      8  C4A HEM A1501      54.549  78.690   7.859 -0.31 +0.06    +0.079 A 
DOCKED: ATOM      9  CMA HEM A1501      54.302  79.750   5.488 -0.49 +0.03    +0.032 C 
DOCKED: ATOM     10  C1B HEM A1501      54.960  76.282   8.177 -0.33 +0.04    +0.079 A 
DOCKED: ATOM     11  C2B HEM A1501      55.129  74.937   7.641 -0.47 -0.00    -0.003 A 
DOCKED: ATOM     12  C3B HEM A1501      55.327  74.142   8.724 -0.45 +0.01    +0.015 A 
DOCKED: ATOM     13  C4B HEM A1501      55.304  75.002   9.904 -0.36 +0.03    +0.083 A 
DOCKED: ATOM     14  CMB HEM A1501      55.075  74.581   6.180 -0.59 +0.02    +0.033 C 
DOCKED: ATOM     15  C1C HEM A1501      55.470  75.314  12.373 -0.34 +0.03    +0.079 A 
DOCKED: ATOM     16  C2C HEM A1501      55.755  74.822  13.693 -0.42 -0.00    -0.003 A 
DOCKED: ATOM     17  C3C HEM A1501      55.639  75.886  14.528 -0.38 +0.01    +0.015 A 
DOCKED: ATOM     18  C4C HEM A1501      55.267  77.043  13.691 -0.32 +0.03    +0.083 A 
DOCKED: ATOM     19  CMC HEM A1501      56.108  73.379  13.993 -0.54 +0.01    +0.033 C 
DOCKED: ATOM     20  C1D HEM A1501      54.668  79.519  13.338 -0.33 +0.05    +0.079 A 
DOCKED: ATOM     21  C2D HEM A1501      54.424  80.832  13.853 -0.41 -0.00    -0.007 A 
DOCKED: ATOM     22  C3D HEM A1501      54.190  81.629  12.779 -0.36 -0.00    -0.006 A 
DOCKED: ATOM     23  C4D HEM A1501      54.299  80.796  11.596 -0.22 +0.07    +0.079 A 
DOCKED: ATOM     24  CMD HEM A1501      54.429  81.239  15.273 -0.47 +0.01    +0.032 C 
DOCKED: ATOM     25  NA  HEM A1501      54.552  79.074   9.167 -0.18 -0.20    -0.246 N 
DOCKED: ATOM     26  NB  HEM A1501      55.058  76.280   9.548 -0.12 -0.12    -0.246 N 
DOCKED: ATOM     27  NC  HEM A1501      55.208  76.644  12.419 -0.13 -0.11    -0.246 N 
DOCKED: ATOM     28  ND  HEM A1501      54.593  79.524  11.973 -0.12 -0.17    -0.246 N 
DOCKED: ATOM     29 FE   HEM A1501      54.862  77.885  10.799 -0.07 +0.00    +0.000 Fe
DOCKED: ENDROOT
DOCKED: BRANCH   6  30
DOCKED: ATOM     30  CAA HEM A1501      53.934  82.250   7.261 -0.43 +0.06    +0.039 C 
DOCKED: BRANCH  30  31
DOCKED: ATOM     31  CBA HEM A1501      52.781  82.302   6.278 -0.57 +0.15    +0.102 C 
DOCKED: BRANCH  31  32
DOCKED: ATOM     32  CGA HEM A1501      52.192  83.672   6.086 -0.65 +0.35    +0.186 C 
DOCKED: ATOM     33  O1A HEM A1501      51.063  83.764   5.550 -1.01 -1.35    -0.647 OA
DOCKED: ATOM     34  O2A HEM A1501      52.831  84.657   6.509 -1.12 -1.74    -0.647 OA
DOCKED: ENDBRANCH  31  32
DOCKED: ENDBRANCH  30  31
DOCKED: ENDBRANCH   6  30
DOCKED: BRANCH  22  35
DOCKED: ATOM     35  CAD HEM A1501      53.887  83.076  12.870 -0.43 +0.04    +0.039 C 
DOCKED: BRANCH  35  36
DOCKED: ATOM     36  CBD HEM A1501      55.041  83.864  13.490 -0.24 +0.10    +0.102 C 
DOCKED: BRANCH  36  37
DOCKED: ATOM     37  CGD HEM A1501      55.893  84.578  12.457 -0.06 +0.25    +0.186 C 
DOCKED: ATOM     38  O1D HEM A1501      56.041  85.793  12.713 -0.33 -0.93    -0.647 OA
DOCKED: ATOM     39  O2D HEM A1501      56.446  83.959  11.443 +0.02 -0.81    -0.647 OA
DOCKED: ENDBRANCH  36  37
DOCKED: ENDBRANCH  35  36
DOCKED: ENDBRANCH  22  35
DOCKED: BRANCH  17  40
DOCKED: ATOM     40  CAC HEM A1501      55.827  75.926  15.983 -0.56 +0.00    +0.001 C 
DOCKED: ATOM     41  CBC HEM A1501      55.291  75.090  16.886 -0.60 +0.00    +0.000 C 
DOCKED: ENDBRANCH  17  40
DOCKED: BRANCH  12  42
DOCKED: ATOM     42  CAB HEM A1501      55.546  72.681   8.833 -0.52 +0.00    +0.001 C 
DOCKED: ATOM     43  CBB HEM A1501      54.775  71.737   9.335 -0.57 +0.00    +0.000 C 
DOCKED: ENDBRANCH  12  42
DOCKED: TORSDOF 8
DOCKED: TER
DOCKED: ENDMDL
________________________________________________________________________________


	BEGINNING GENETIC ALGORITHM DOCKING 13 of 100
Run: 13 Seed: 1486965619 730369137 [ Run 13 of 100 GA/GALS ]
Beginning LAMARCKIAN GENETIC ALGORITHM (LGA), with a maximum of 2500000 energy evaluations.

Final-Value: -22.421


	FINAL GENETIC ALGORITHM DOCKED STATE
	_______________________________________________


Detailed state:  trans 54.285 78.845 10.609 quatxyzw -0.003772 0.018743 -0.031453 0.999322 center 54.495 78.699 10.493 ntor 8 -15.3548 -8.6241 167.9646 28.5074 29.0932 -11.1978 -179.6428 -27.1727
State:	 54.285  78.845  10.609  -0.102  0.509 -0.855  4.219    -15.35   -8.62  167.96   28.51   29.09  -11.20 -179.64  -27.17

DOCKED: MODEL       13
DOCKED: USER    Run = 13
DOCKED: USER    DPF = C:/Users/georg/Desktop/fall2024/4-Computational_Biology/Assignment/executables/HEM.dpf
DOCKED: USER  
DOCKED: USER    Estimated Free Energy of Binding    =  -19.51 kcal/mol  [=(1)+(2)+(3)-(4)]
DOCKED: USER    Estimated Inhibition Constant, Ki   =    5.03 fM (femtomolar)  [Temperature = 298.15 K]
DOCKED: USER    
DOCKED: USER    (1) Final Intermolecular Energy     =  -21.89 kcal/mol
DOCKED: USER        vdW + Hbond + desolv Energy     =  -17.92 kcal/mol
DOCKED: USER        Electrostatic Energy            =   -3.97 kcal/mol
DOCKED: USER    (2) Final Total Internal Energy     =   -0.53 kcal/mol
DOCKED: USER    (3) Torsional Free Energy           =   +2.39 kcal/mol
DOCKED: USER    (4) Unbound System's Energy  [=(2)] =   -0.53 kcal/mol
DOCKED: USER    
DOCKED: USER    
DOCKED: USER    NEWDPF move HEM.pdbqt
DOCKED: USER    NEWDPF about 54.495000 78.699000 10.493000
DOCKED: USER    NEWDPF tran0 54.284525 78.844721 10.609185
DOCKED: USER    NEWDPF quaternion0 -0.003772 0.018743 -0.031453 0.999322
DOCKED: USER    NEWDPF axisangle0 -0.102484 0.509200 -0.854525 4.218843
DOCKED: USER    NEWDPF quat0 -0.102484 0.509200 -0.854525 4.218843
DOCKED: USER    NEWDPF dihe0 -15.35 -8.62 167.96 28.51 29.09 -11.20 -179.64 -27.17 
DOCKED: USER  keepresnum = 1 
DOCKED: USER  
DOCKED: REMARK  8 active torsions:
DOCKED: REMARK  status: ('A' for Active; 'I' for Inactive)
DOCKED: REMARK    1  A    between atoms: C2A_3624  and  CAA_3628 
DOCKED: REMARK    2  A    between atoms: CAA_3628  and  CBA_3629 
DOCKED: REMARK    3  A    between atoms: CBA_3629  and  CGA_3630 
DOCKED: REMARK    4  A    between atoms: C3B_3635  and  CAB_3638 
DOCKED: REMARK    5  A    between atoms: C3C_3642  and  CAC_3645 
DOCKED: REMARK    6  A    between atoms: C3D_3649  and  CAD_3652 
DOCKED: REMARK    7  A    between atoms: CAD_3652  and  CBD_3653 
DOCKED: REMARK    8  A    between atoms: CBD_3653  and  CGD_3654 
DOCKED: USER                              x       y       z     vdW  Elec       q    Type
DOCKED: USER                           _______ _______ _______ _____ _____    ______ ____
DOCKED: ROOT
DOCKED: ATOM      1  CHA HEM A1501      54.086  81.171  10.210 -0.28 +0.04    +0.038 A 
DOCKED: ATOM      2  CHB HEM A1501      54.965  78.531  14.133 -0.40 +0.02    +0.038 A 
DOCKED: ATOM      3  CHC HEM A1501      55.557  74.606  11.389 -0.40 +0.01    +0.038 A 
DOCKED: ATOM      4  CHD HEM A1501      54.612  77.237   7.465 -0.38 +0.03    +0.038 A 
DOCKED: ATOM      5  C1A HEM A1501      54.247  80.792  11.538 -0.22 +0.07    +0.079 A 
DOCKED: ATOM      6  C2A HEM A1501      54.115  81.651  12.720 -0.36 -0.00    -0.006 A 
DOCKED: ATOM      7  C3A HEM A1501      54.365  80.900  13.782 -0.41 -0.00    -0.007 A 
DOCKED: ATOM      8  C4A HEM A1501      54.641  79.582  13.298 -0.33 +0.05    +0.079 A 
DOCKED: ATOM      9  CMA HEM A1501      54.345  81.320  15.220 -0.44 +0.01    +0.032 C 
DOCKED: ATOM     10  C1B HEM A1501      55.235  77.232  13.741 -0.33 +0.03    +0.079 A 
DOCKED: ATOM     11  C2B HEM A1501      55.593  76.161  14.662 -0.40 -0.00    -0.003 A 
DOCKED: ATOM     12  C3B HEM A1501      55.773  75.063  13.883 -0.40 +0.01    +0.015 A 
DOCKED: ATOM     13  C4B HEM A1501      55.503  75.461  12.504 -0.33 +0.03    +0.083 A 
DOCKED: ATOM     14  CMB HEM A1501      55.722  76.317  16.153 -0.55 +0.01    +0.033 C 
DOCKED: ATOM     15  C1C HEM A1501      55.331  74.916  10.075 -0.37 +0.03    +0.079 A 
DOCKED: ATOM     16  C2C HEM A1501      55.321  73.976   8.989 -0.46 -0.00    -0.003 A 
DOCKED: ATOM     17  C3C HEM A1501      55.039  74.691   7.870 -0.46 +0.01    +0.015 A 
DOCKED: ATOM     18  C4C HEM A1501      54.885  76.097   8.294 -0.35 +0.05    +0.083 A 
DOCKED: ATOM     19  CMC HEM A1501      55.584  72.493   9.159 -0.51 +0.01    +0.033 C 
DOCKED: ATOM     20  C1D HEM A1501      54.434  78.589   7.849 -0.33 +0.06    +0.079 A 
DOCKED: ATOM     21  C2D HEM A1501      54.157  79.669   6.950 -0.37 -0.01    -0.007 A 
DOCKED: ATOM     22  C3D HEM A1501      54.009  80.779   7.718 -0.36 -0.01    -0.006 A 
DOCKED: ATOM     23  C4D HEM A1501      54.190  80.372   9.098 -0.27 +0.08    +0.079 A 
DOCKED: ATOM     24  CMD HEM A1501      54.051  79.588   5.479 -0.48 +0.03    +0.032 C 
DOCKED: ATOM     25  NA  HEM A1501      54.541  79.516  11.940 -0.11 -0.17    -0.246 N 
DOCKED: ATOM     26  NB  HEM A1501      55.205  76.776  12.445 -0.12 -0.11    -0.246 N 
DOCKED: ATOM     27  NC  HEM A1501      55.043  76.159   9.617 -0.12 -0.12    -0.246 N 
DOCKED: ATOM     28  ND  HEM A1501      54.443  79.037   9.140 -0.19 -0.20    -0.246 N 
DOCKED: ATOM     29 FE   HEM A1501      54.798  77.866  10.764 -0.07 +0.00    +0.000 Fe
DOCKED: ENDROOT
DOCKED: BRANCH   6  30
DOCKED: ATOM     30  CAA HEM A1501      53.763  83.097  12.763 -0.45 +0.04    +0.039 C 
DOCKED: BRANCH  30  31
DOCKED: ATOM     31  CBA HEM A1501      54.965  83.975  12.475 -0.28 +0.14    +0.102 C 
DOCKED: BRANCH  31  32
DOCKED: ATOM     32  CGA HEM A1501      54.874  85.359  13.058 -0.23 +0.30    +0.186 C 
DOCKED: ATOM     33  O1A HEM A1501      53.776  85.735  13.530 -0.36 -1.16    -0.647 OA
DOCKED: ATOM     34  O2A HEM A1501      55.908  86.058  13.089 -0.46 -0.85    -0.647 OA
DOCKED: ENDBRANCH  31  32
DOCKED: ENDBRANCH  30  31
DOCKED: ENDBRANCH   6  30
DOCKED: BRANCH  22  35
DOCKED: ATOM     35  CAD HEM A1501      53.715  82.127   7.178 -0.46 +0.06    +0.039 C 
DOCKED: BRANCH  35  36
DOCKED: ATOM     36  CBD HEM A1501      52.431  82.144   6.350 -0.58 +0.15    +0.102 C 
DOCKED: BRANCH  36  37
DOCKED: ATOM     37  CGD HEM A1501      51.988  83.545   5.972 -0.63 +0.34    +0.186 C 
DOCKED: ATOM     38  O1D HEM A1501      51.035  83.546   5.161 -1.15 -1.29    -0.647 OA
DOCKED: ATOM     39  O2D HEM A1501      52.524  84.622   6.489 -1.02 -1.65    -0.647 OA
DOCKED: ENDBRANCH  36  37
DOCKED: ENDBRANCH  35  36
DOCKED: ENDBRANCH  22  35
DOCKED: BRANCH  17  40
DOCKED: ATOM     40  CAC HEM A1501      54.913  74.210   6.489 -0.60 +0.00    +0.001 C 
DOCKED: ATOM     41  CBC HEM A1501      53.774  74.021   5.805 -0.66 +0.00    +0.000 C 
DOCKED: ENDBRANCH  17  40
DOCKED: BRANCH  12  42
DOCKED: ATOM     42  CAB HEM A1501      56.158  73.675  14.229 -0.57 +0.00    +0.001 C 
DOCKED: ATOM     43  CBB HEM A1501      56.942  73.219  15.185 -0.62 +0.00    +0.000 C 
DOCKED: ENDBRANCH  12  42
DOCKED: TORSDOF 8
DOCKED: TER
DOCKED: ENDMDL
________________________________________________________________________________


	BEGINNING GENETIC ALGORITHM DOCKING 14 of 100
Run: 14 Seed: 2123759894 1840568449 [ Run 14 of 100 GA/GALS ]
Beginning LAMARCKIAN GENETIC ALGORITHM (LGA), with a maximum of 2500000 energy evaluations.

Final-Value: -23.563


	FINAL GENETIC ALGORITHM DOCKED STATE
	_______________________________________________


Detailed state:  trans 54.960 79.021 10.836 quatxyzw 0.174640 -0.975767 0.131446 0.010099 center 54.495 78.699 10.493 ntor 8 136.3775 -89.2543 -28.4234 -107.0685 32.2844 17.9484 158.6495 -179.6997
State:	 54.960  79.021  10.836   0.175 -0.976  0.131 178.843    136.38  -89.25  -28.42 -107.07   32.28   17.95  158.65 -179.70

DOCKED: MODEL       14
DOCKED: USER    Run = 14
DOCKED: USER    DPF = C:/Users/georg/Desktop/fall2024/4-Computational_Biology/Assignment/executables/HEM.dpf
DOCKED: USER  
DOCKED: USER    Estimated Free Energy of Binding    =  -20.56 kcal/mol  [=(1)+(2)+(3)-(4)]
DOCKED: USER    Estimated Inhibition Constant, Ki   =  850.51 aM (attomolar)  [Temperature = 298.15 K]
DOCKED: USER    
DOCKED: USER    (1) Final Intermolecular Energy     =  -22.95 kcal/mol
DOCKED: USER        vdW + Hbond + desolv Energy     =  -18.49 kcal/mol
DOCKED: USER        Electrostatic Energy            =   -4.45 kcal/mol
DOCKED: USER    (2) Final Total Internal Energy     =   -0.62 kcal/mol
DOCKED: USER    (3) Torsional Free Energy           =   +2.39 kcal/mol
DOCKED: USER    (4) Unbound System's Energy  [=(2)] =   -0.62 kcal/mol
DOCKED: USER    
DOCKED: USER    
DOCKED: USER    NEWDPF move HEM.pdbqt
DOCKED: USER    NEWDPF about 54.495000 78.699000 10.493000
DOCKED: USER    NEWDPF tran0 54.959797 79.020871 10.835886
DOCKED: USER    NEWDPF quaternion0 0.174640 -0.975767 0.131446 0.010099
DOCKED: USER    NEWDPF axisangle0 0.174649 -0.975817 0.131452 178.842754
DOCKED: USER    NEWDPF quat0 0.174649 -0.975817 0.131452 178.842754
DOCKED: USER    NEWDPF dihe0 136.38 -89.25 -28.42 -107.07 32.28 17.95 158.65 -179.70 
DOCKED: USER  keepresnum = 1 
DOCKED: USER  
DOCKED: REMARK  8 active torsions:
DOCKED: REMARK  status: ('A' for Active; 'I' for Inactive)
DOCKED: REMARK    1  A    between atoms: C2A_3624  and  CAA_3628 
DOCKED: REMARK    2  A    between atoms: CAA_3628  and  CBA_3629 
DOCKED: REMARK    3  A    between atoms: CBA_3629  and  CGA_3630 
DOCKED: REMARK    4  A    between atoms: C3B_3635  and  CAB_3638 
DOCKED: REMARK    5  A    between atoms: C3C_3642  and  CAC_3645 
DOCKED: REMARK    6  A    between atoms: C3D_3649  and  CAD_3652 
DOCKED: REMARK    7  A    between atoms: CAD_3652  and  CBD_3653 
DOCKED: REMARK    8  A    between atoms: CBD_3653  and  CGD_3654 
DOCKED: USER                              x       y       z     vdW  Elec       q    Type
DOCKED: USER                           _______ _______ _______ _____ _____    ______ ____
DOCKED: ROOT
DOCKED: ATOM      1  CHA HEM A1501      54.207  81.257  10.625 -0.28 +0.04    +0.038 A 
DOCKED: ATOM      2  CHB HEM A1501      54.559  77.562   7.566 -0.38 +0.03    +0.038 A 
DOCKED: ATOM      3  CHC HEM A1501      55.496  74.578  11.240 -0.40 +0.01    +0.038 A 
DOCKED: ATOM      4  CHD HEM A1501      55.210  78.291  14.297 -0.39 +0.01    +0.038 A 
DOCKED: ATOM      5  C1A HEM A1501      54.247  80.514   9.450 -0.25 +0.08    +0.079 A 
DOCKED: ATOM      6  C2A HEM A1501      54.060  81.017   8.085 -0.36 -0.01    -0.006 A 
DOCKED: ATOM      7  C3A HEM A1501      54.159  79.980   7.267 -0.36 -0.01    -0.007 A 
DOCKED: ATOM      8  C4A HEM A1501      54.416  78.834   8.085 -0.31 +0.06    +0.079 A 
DOCKED: ATOM      9  CMA HEM A1501      54.051  79.985   5.772 -0.47 +0.03    +0.032 C 
DOCKED: ATOM     10  C1B HEM A1501      54.815  76.412   8.290 -0.35 +0.05    +0.079 A 
DOCKED: ATOM     11  C2B HEM A1501      54.939  75.086   7.696 -0.47 -0.00    -0.003 A 
DOCKED: ATOM     12  C3B HEM A1501      55.187  74.249   8.736 -0.45 +0.01    +0.015 A 
DOCKED: ATOM     13  C4B HEM A1501      55.239  75.064   9.946 -0.36 +0.03    +0.083 A 
DOCKED: ATOM     14  CMB HEM A1501      54.800  74.786   6.229 -0.59 +0.02    +0.033 C 
DOCKED: ATOM     15  C1C HEM A1501      55.544  75.281  12.413 -0.34 +0.03    +0.079 A 
DOCKED: ATOM     16  C2C HEM A1501      55.896  74.737  13.696 -0.43 -0.00    -0.003 A 
DOCKED: ATOM     17  C3C HEM A1501      55.839  75.770  14.575 -0.40 +0.01    +0.015 A 
DOCKED: ATOM     18  C4C HEM A1501      55.435  76.961  13.803 -0.32 +0.03    +0.083 A 
DOCKED: ATOM     19  CMC HEM A1501      56.248  73.281  13.922 -0.55 +0.01    +0.033 C 
DOCKED: ATOM     20  C1D HEM A1501      54.847  79.455  13.576 -0.34 +0.04    +0.079 A 
DOCKED: ATOM     21  C2D HEM A1501      54.647  80.750  14.152 -0.41 -0.00    -0.007 A 
DOCKED: ATOM     22  C3D HEM A1501      54.363  81.588  13.123 -0.35 -0.00    -0.006 A 
DOCKED: ATOM     23  C4D HEM A1501      54.397  80.800  11.906 -0.24 +0.06    +0.079 A 
DOCKED: ATOM     24  CMD HEM A1501      54.735  81.103  15.584 -0.39 +0.01    +0.032 C 
DOCKED: ATOM     25  NA  HEM A1501      54.495  79.168   9.405 -0.17 -0.20    -0.246 N 
DOCKED: ATOM     26  NB  HEM A1501      54.988  76.357   9.652 -0.03 -0.12    -0.246 N 
DOCKED: ATOM     27  NC  HEM A1501      55.302  76.611  12.523 -0.16 -0.11    -0.246 N 
DOCKED: ATOM     28  ND  HEM A1501      54.696  79.511  12.219 -0.15 -0.17    -0.246 N 
DOCKED: ATOM     29 FE   HEM A1501      54.881  77.916  10.971 -0.07 +0.00    +0.000 Fe
DOCKED: ENDROOT
DOCKED: BRANCH   6  30
DOCKED: ATOM     30  CAA HEM A1501      53.811  82.420   7.655 -0.36 +0.06    +0.039 C 
DOCKED: BRANCH  30  31
DOCKED: ATOM     31  CBA HEM A1501      52.354  82.647   7.301 -0.55 +0.17    +0.102 C 
DOCKED: BRANCH  31  32
DOCKED: ATOM     32  CGA HEM A1501      52.126  83.725   6.277 -0.64 +0.36    +0.186 C 
DOCKED: ATOM     33  O1A HEM A1501      51.106  83.652   5.554 -1.01 -1.34    -0.647 OA
DOCKED: ATOM     34  O2A HEM A1501      52.938  84.672   6.222 -1.19 -1.68    -0.647 OA
DOCKED: ENDBRANCH  31  32
DOCKED: ENDBRANCH  30  31
DOCKED: ENDBRANCH   6  30
DOCKED: BRANCH  22  35
DOCKED: ATOM     35  CAD HEM A1501      54.083  83.034  13.284 -0.40 +0.04    +0.039 C 
DOCKED: BRANCH  35  36
DOCKED: ATOM     36  CBD HEM A1501      52.583  83.320  13.367 -0.53 +0.10    +0.102 C 
DOCKED: BRANCH  36  37
DOCKED: ATOM     37  CGD HEM A1501      52.236  84.762  13.049 -0.47 +0.27    +0.186 C 
DOCKED: ATOM     38  O1D HEM A1501      52.962  85.246  12.153 -0.53 -1.43    -0.647 OA
DOCKED: ATOM     39  O2D HEM A1501      51.247  85.397  13.628 -0.73 -0.96    -0.647 OA
DOCKED: ENDBRANCH  36  37
DOCKED: ENDBRANCH  35  36
DOCKED: ENDBRANCH  22  35
DOCKED: BRANCH  17  40
DOCKED: ATOM     40  CAC HEM A1501      56.107  75.753  16.018 -0.56 +0.00    +0.001 C 
DOCKED: ATOM     41  CBC HEM A1501      55.198  75.794  17.005 -0.65 +0.00    +0.000 C 
DOCKED: ENDBRANCH  17  40
DOCKED: BRANCH  12  42
DOCKED: ATOM     42  CAB HEM A1501      55.394  72.783   8.779 -0.53 +0.00    +0.001 C 
DOCKED: ATOM     43  CBB HEM A1501      54.653  71.830   9.309 -0.57 +0.00    +0.000 C 
DOCKED: ENDBRANCH  12  42
DOCKED: TORSDOF 8
DOCKED: TER
DOCKED: ENDMDL
________________________________________________________________________________


	BEGINNING GENETIC ALGORITHM DOCKING 15 of 100
Run: 15 Seed: 1976746809 789048950 [ Run 15 of 100 GA/GALS ]
Beginning LAMARCKIAN GENETIC ALGORITHM (LGA), with a maximum of 2500000 energy evaluations.

Final-Value: -22.482


	FINAL GENETIC ALGORITHM DOCKED STATE
	_______________________________________________


Detailed state:  trans 54.358 78.661 10.489 quatxyzw -0.012514 -0.005532 0.016426 -0.999771 center 54.495 78.699 10.493 ntor 8 10.4215 4.0095 165.5341 -173.4173 26.0533 -30.9942 25.6663 -21.6520
State:	 54.358  78.661  10.489  -0.585 -0.259  0.768 -2.450     10.42    4.01  165.53 -173.42   26.05  -30.99   25.67  -21.65

DOCKED: MODEL       15
DOCKED: USER    Run = 15
DOCKED: USER    DPF = C:/Users/georg/Desktop/fall2024/4-Computational_Biology/Assignment/executables/HEM.dpf
DOCKED: USER  
DOCKED: USER    Estimated Free Energy of Binding    =  -19.72 kcal/mol  [=(1)+(2)+(3)-(4)]
DOCKED: USER    Estimated Inhibition Constant, Ki   =    3.49 fM (femtomolar)  [Temperature = 298.15 K]
DOCKED: USER    
DOCKED: USER    (1) Final Intermolecular Energy     =  -22.11 kcal/mol
DOCKED: USER        vdW + Hbond + desolv Energy     =  -17.91 kcal/mol
DOCKED: USER        Electrostatic Energy            =   -4.20 kcal/mol
DOCKED: USER    (2) Final Total Internal Energy     =   -0.37 kcal/mol
DOCKED: USER    (3) Torsional Free Energy           =   +2.39 kcal/mol
DOCKED: USER    (4) Unbound System's Energy  [=(2)] =   -0.37 kcal/mol
DOCKED: USER    
DOCKED: USER    
DOCKED: USER    NEWDPF move HEM.pdbqt
DOCKED: USER    NEWDPF about 54.495000 78.699000 10.493000
DOCKED: USER    NEWDPF tran0 54.357648 78.661132 10.488807
DOCKED: USER    NEWDPF quaternion0 -0.012514 -0.005532 0.016426 -0.999771
DOCKED: USER    NEWDPF axisangle0 -0.585382 -0.258749 0.768360 -2.449933
DOCKED: USER    NEWDPF quat0 -0.585382 -0.258749 0.768360 -2.449933
DOCKED: USER    NEWDPF dihe0 10.42 4.01 165.53 -173.42 26.05 -30.99 25.67 -21.65 
DOCKED: USER  keepresnum = 1 
DOCKED: USER  
DOCKED: REMARK  8 active torsions:
DOCKED: REMARK  status: ('A' for Active; 'I' for Inactive)
DOCKED: REMARK    1  A    between atoms: C2A_3624  and  CAA_3628 
DOCKED: REMARK    2  A    between atoms: CAA_3628  and  CBA_3629 
DOCKED: REMARK    3  A    between atoms: CBA_3629  and  CGA_3630 
DOCKED: REMARK    4  A    between atoms: C3B_3635  and  CAB_3638 
DOCKED: REMARK    5  A    between atoms: C3C_3642  and  CAC_3645 
DOCKED: REMARK    6  A    between atoms: C3D_3649  and  CAD_3652 
DOCKED: REMARK    7  A    between atoms: CAD_3652  and  CBD_3653 
DOCKED: REMARK    8  A    between atoms: CBD_3653  and  CGD_3654 
DOCKED: USER                              x       y       z     vdW  Elec       q    Type
DOCKED: USER                           _______ _______ _______ _____ _____    ______ ____
DOCKED: ROOT
DOCKED: ATOM      1  CHA HEM A1501      54.219  80.979  10.017 -0.28 +0.04    +0.038 A 
DOCKED: ATOM      2  CHB HEM A1501      55.120  78.440  14.003 -0.38 +0.02    +0.038 A 
DOCKED: ATOM      3  CHC HEM A1501      55.522  74.413  11.377 -0.41 +0.01    +0.038 A 
DOCKED: ATOM      4  CHD HEM A1501      54.554  76.943   7.393 -0.40 +0.02    +0.038 A 
DOCKED: ATOM      5  C1A HEM A1501      54.403  80.638  11.354 -0.21 +0.07    +0.079 A 
DOCKED: ATOM      6  C2A HEM A1501      54.328  81.539  12.509 -0.33 -0.00    -0.006 A 
DOCKED: ATOM      7  C3A HEM A1501      54.583  80.814  13.589 -0.38 -0.00    -0.007 A 
DOCKED: ATOM      8  C4A HEM A1501      54.806  79.473  13.142 -0.31 +0.05    +0.079 A 
DOCKED: ATOM      9  CMA HEM A1501      54.612  81.282  15.012 -0.47 +0.02    +0.032 C 
DOCKED: ATOM     10  C1B HEM A1501      55.340  77.123  13.647 -0.32 +0.03    +0.079 A 
DOCKED: ATOM     11  C2B HEM A1501      55.689  76.071  14.595 -0.40 -0.00    -0.003 A 
DOCKED: ATOM     12  C3B HEM A1501      55.816  74.943  13.848 -0.41 +0.01    +0.015 A 
DOCKED: ATOM     13  C4B HEM A1501      55.522  75.304  12.464 -0.34 +0.03    +0.083 A 
DOCKED: ATOM     14  CMB HEM A1501      55.862  76.271  16.076 -0.54 +0.01    +0.033 C 
DOCKED: ATOM     15  C1C HEM A1501      55.271  74.687  10.060 -0.38 +0.03    +0.079 A 
DOCKED: ATOM     16  C2C HEM A1501      55.204  73.712   9.006 -0.47 -0.00    -0.003 A 
DOCKED: ATOM     17  C3C HEM A1501      54.915  74.400   7.871 -0.46 +0.01    +0.015 A 
DOCKED: ATOM     18  C4C HEM A1501      54.814  75.822   8.252 -0.37 +0.04    +0.083 A 
DOCKED: ATOM     19  CMC HEM A1501      55.427  72.229   9.218 -0.54 +0.01    +0.033 C 
DOCKED: ATOM     20  C1D HEM A1501      54.428  78.312   7.735 -0.34 +0.06    +0.079 A 
DOCKED: ATOM     21  C2D HEM A1501      54.160  79.370   6.809 -0.38 -0.01    -0.007 A 
DOCKED: ATOM     22  C3D HEM A1501      54.066  80.508   7.542 -0.36 -0.01    -0.006 A 
DOCKED: ATOM     23  C4D HEM A1501      54.270  80.141   8.930 -0.27 +0.08    +0.079 A 
DOCKED: ATOM     24  CMD HEM A1501      54.013  79.245   5.344 -0.46 +0.03    +0.032 C 
DOCKED: ATOM     25  NA  HEM A1501      54.669  79.367  11.789 -0.09 -0.17    -0.246 N 
DOCKED: ATOM     26  NB  HEM A1501      55.262  76.625  12.368 -0.13 -0.11    -0.246 N 
DOCKED: ATOM     27  NC  HEM A1501      55.009  75.923   9.568 -0.17 -0.11    -0.246 N 
DOCKED: ATOM     28  ND  HEM A1501      54.484  78.801   9.010 -0.19 -0.19    -0.246 N 
DOCKED: ATOM     29 FE   HEM A1501      54.846  77.673  10.663 -0.07 +0.00    +0.000 Fe
DOCKED: ENDROOT
DOCKED: BRANCH   6  30
DOCKED: ATOM     30  CAA HEM A1501      54.021  82.995  12.513 -0.41 +0.04    +0.039 C 
DOCKED: BRANCH  30  31
DOCKED: ATOM     31  CBA HEM A1501      52.844  83.317  13.414 -0.51 +0.10    +0.102 C 
DOCKED: BRANCH  31  32
DOCKED: ATOM     32  CGA HEM A1501      52.152  84.612  13.089 -0.50 +0.26    +0.186 C 
DOCKED: ATOM     33  O1A HEM A1501      52.724  85.414  12.315 -0.47 -1.42    -0.647 OA
DOCKED: ATOM     34  O2A HEM A1501      51.016  84.813  13.566 -0.44 -0.83    -0.647 OA
DOCKED: ENDBRANCH  31  32
DOCKED: ENDBRANCH  30  31
DOCKED: ENDBRANCH   6  30
DOCKED: BRANCH  22  35
DOCKED: ATOM     35  CAD HEM A1501      53.799  81.847   6.966 -0.46 +0.05    +0.039 C 
DOCKED: BRANCH  35  36
DOCKED: ATOM     36  CBD HEM A1501      52.432  81.913   6.286 -0.57 +0.14    +0.102 C 
DOCKED: BRANCH  36  37
DOCKED: ATOM     37  CGD HEM A1501      51.824  83.303   6.312 -0.54 +0.34    +0.186 C 
DOCKED: ATOM     38  O1D HEM A1501      52.174  83.962   7.316 -0.69 -1.50    -0.647 OA
DOCKED: ATOM     39  O2D HEM A1501      51.059  83.762   5.352 -1.00 -1.34    -0.647 OA
DOCKED: ENDBRANCH  36  37
DOCKED: ENDBRANCH  35  36
DOCKED: ENDBRANCH  22  35
DOCKED: BRANCH  17  40
DOCKED: ATOM     40  CAC HEM A1501      54.739  73.878   6.511 -0.60 +0.00    +0.001 C 
DOCKED: ATOM     41  CBC HEM A1501      53.713  74.126   5.682 -0.67 +0.00    +0.000 C 
DOCKED: ENDBRANCH  17  40
DOCKED: BRANCH  12  42
DOCKED: ATOM     42  CAB HEM A1501      56.168  73.556  14.230 -0.58 +0.00    +0.001 C 
DOCKED: ATOM     43  CBB HEM A1501      56.779  73.094  15.303 -0.62 +0.00    +0.000 C 
DOCKED: ENDBRANCH  12  42
DOCKED: TORSDOF 8
DOCKED: TER
DOCKED: ENDMDL
________________________________________________________________________________


	BEGINNING GENETIC ALGORITHM DOCKING 16 of 100
Run: 16 Seed: 1238256067 311864216 [ Run 16 of 100 GA/GALS ]
Beginning LAMARCKIAN GENETIC ALGORITHM (LGA), with a maximum of 2500000 energy evaluations.

Final-Value: -23.259


	FINAL GENETIC ALGORITHM DOCKED STATE
	_______________________________________________


Detailed state:  trans 54.902 78.808 10.359 quatxyzw 0.171690 -0.967683 0.183954 0.016549 center 54.495 78.699 10.493 ntor 8 180.0000 -177.1572 114.0981 -159.1546 16.1270 -18.5723 -166.5799 -157.8507
State:	 54.902  78.808  10.359   0.172 -0.968  0.184 178.104    180.00 -177.16  114.10 -159.15   16.13  -18.57 -166.58 -157.85

DOCKED: MODEL       16
DOCKED: USER    Run = 16
DOCKED: USER    DPF = C:/Users/georg/Desktop/fall2024/4-Computational_Biology/Assignment/executables/HEM.dpf
DOCKED: USER  
DOCKED: USER    Estimated Free Energy of Binding    =  -20.37 kcal/mol  [=(1)+(2)+(3)-(4)]
DOCKED: USER    Estimated Inhibition Constant, Ki   =    1.18 fM (femtomolar)  [Temperature = 298.15 K]
DOCKED: USER    
DOCKED: USER    (1) Final Intermolecular Energy     =  -22.75 kcal/mol
DOCKED: USER        vdW + Hbond + desolv Energy     =  -18.54 kcal/mol
DOCKED: USER        Electrostatic Energy            =   -4.21 kcal/mol
DOCKED: USER    (2) Final Total Internal Energy     =   -0.51 kcal/mol
DOCKED: USER    (3) Torsional Free Energy           =   +2.39 kcal/mol
DOCKED: USER    (4) Unbound System's Energy  [=(2)] =   -0.51 kcal/mol
DOCKED: USER    
DOCKED: USER    
DOCKED: USER    NEWDPF move HEM.pdbqt
DOCKED: USER    NEWDPF about 54.495000 78.699000 10.493000
DOCKED: USER    NEWDPF tran0 54.902033 78.807562 10.359215
DOCKED: USER    NEWDPF quaternion0 0.171690 -0.967683 0.183954 0.016549
DOCKED: USER    NEWDPF axisangle0 0.171713 -0.967815 0.183979 178.103575
DOCKED: USER    NEWDPF quat0 0.171713 -0.967815 0.183979 178.103575
DOCKED: USER    NEWDPF dihe0 180.00 -177.16 114.10 -159.15 16.13 -18.57 -166.58 -157.85 
DOCKED: USER  keepresnum = 1 
DOCKED: USER  
DOCKED: REMARK  8 active torsions:
DOCKED: REMARK  status: ('A' for Active; 'I' for Inactive)
DOCKED: REMARK    1  A    between atoms: C2A_3624  and  CAA_3628 
DOCKED: REMARK    2  A    between atoms: CAA_3628  and  CBA_3629 
DOCKED: REMARK    3  A    between atoms: CBA_3629  and  CGA_3630 
DOCKED: REMARK    4  A    between atoms: C3B_3635  and  CAB_3638 
DOCKED: REMARK    5  A    between atoms: C3C_3642  and  CAC_3645 
DOCKED: REMARK    6  A    between atoms: C3D_3649  and  CAD_3652 
DOCKED: REMARK    7  A    between atoms: CAD_3652  and  CBD_3653 
DOCKED: REMARK    8  A    between atoms: CBD_3653  and  CGD_3654 
DOCKED: USER                              x       y       z     vdW  Elec       q    Type
DOCKED: USER                           _______ _______ _______ _____ _____    ______ ____
DOCKED: ROOT
DOCKED: ATOM      1  CHA HEM A1501      54.165  81.011   9.898 -0.28 +0.04    +0.038 A 
DOCKED: ATOM      2  CHB HEM A1501      54.599  77.022   7.244 -0.40 +0.02    +0.038 A 
DOCKED: ATOM      3  CHC HEM A1501      55.408  74.429  11.232 -0.41 +0.01    +0.038 A 
DOCKED: ATOM      4  CHD HEM A1501      55.039  78.435  13.883 -0.38 +0.02    +0.038 A 
DOCKED: ATOM      5  C1A HEM A1501      54.239  80.152   8.806 -0.28 +0.08    +0.079 A 
DOCKED: ATOM      6  C2A HEM A1501      54.098  80.513   7.392 -0.36 -0.01    -0.006 A 
DOCKED: ATOM      7  C3A HEM A1501      54.219  79.397   6.687 -0.38 -0.01    -0.007 A 
DOCKED: ATOM      8  C4A HEM A1501      54.445  78.341   7.626 -0.34 +0.06    +0.079 A 
DOCKED: ATOM      9  CMA HEM A1501      54.158  79.250   5.197 -0.50 +0.02    +0.032 C 
DOCKED: ATOM     10  C1B HEM A1501      54.828  75.952   8.090 -0.38 +0.04    +0.079 A 
DOCKED: ATOM     11  C2B HEM A1501      54.965  74.573   7.638 -0.48 -0.00    -0.003 A 
DOCKED: ATOM     12  C3B HEM A1501      55.177  73.846   8.766 -0.46 +0.01    +0.015 A 
DOCKED: ATOM     13  C4B HEM A1501      55.193  74.780   9.888 -0.38 +0.03    +0.083 A 
DOCKED: ATOM     14  CMB HEM A1501      54.872  74.124   6.206 -0.58 +0.02    +0.033 C 
DOCKED: ATOM     15  C1C HEM A1501      55.422  75.248  12.328 -0.34 +0.03    +0.079 A 
DOCKED: ATOM     16  C2C HEM A1501      55.731  74.838  13.670 -0.42 -0.00    -0.003 A 
DOCKED: ATOM     17  C3C HEM A1501      55.650  75.955  14.437 -0.38 +0.01    +0.015 A 
DOCKED: ATOM     18  C4C HEM A1501      55.275  77.062  13.535 -0.31 +0.04    +0.083 A 
DOCKED: ATOM     19  CMC HEM A1501      56.069  73.412  14.055 -0.55 +0.01    +0.033 C 
DOCKED: ATOM     20  C1D HEM A1501      54.704  79.519  13.036 -0.29 +0.05    +0.079 A 
DOCKED: ATOM     21  C2D HEM A1501      54.491  80.866  13.470 -0.38 -0.00    -0.007 A 
DOCKED: ATOM     22  C3D HEM A1501      54.244  81.596  12.352 -0.33 -0.01    -0.006 A 
DOCKED: ATOM     23  C4D HEM A1501      54.313  80.687  11.224 -0.20 +0.07    +0.079 A 
DOCKED: ATOM     24  CMD HEM A1501      54.535  81.364  14.860 -0.47 +0.02    +0.032 C 
DOCKED: ATOM     25  NA  HEM A1501      54.484  78.808   8.906 -0.20 -0.20    -0.246 N 
DOCKED: ATOM     26  NB  HEM A1501      54.958  76.037   9.455 -0.16 -0.12    -0.246 N 
DOCKED: ATOM     27  NC  HEM A1501      55.181  76.582  12.293 -0.10 -0.11    -0.246 N 
DOCKED: ATOM     28  ND  HEM A1501      54.597  79.437  11.676 -0.09 -0.18    -0.246 N 
DOCKED: ATOM     29 FE   HEM A1501      54.815  77.722  10.604 -0.07 +0.00    +0.000 Fe
DOCKED: ENDROOT
DOCKED: BRANCH   6  30
DOCKED: ATOM     30  CAA HEM A1501      53.868  81.865   6.813 -0.45 +0.05    +0.039 C 
DOCKED: BRANCH  30  31
DOCKED: ATOM     31  CBA HEM A1501      52.490  82.395   7.158 -0.56 +0.16    +0.102 C 
DOCKED: BRANCH  31  32
DOCKED: ATOM     32  CGA HEM A1501      52.082  83.615   6.378 -0.61 +0.36    +0.186 C 
DOCKED: ATOM     33  O1A HEM A1501      52.734  84.672   6.543 -1.10 -1.73    -0.647 OA
DOCKED: ATOM     34  O2A HEM A1501      51.142  83.510   5.564 -0.99 -1.32    -0.647 OA
DOCKED: ENDBRANCH  31  32
DOCKED: ENDBRANCH  30  31
DOCKED: ENDBRANCH   6  30
DOCKED: BRANCH  22  35
DOCKED: ATOM     35  CAD HEM A1501      53.964  83.051  12.356 -0.41 +0.05    +0.039 C 
DOCKED: BRANCH  35  36
DOCKED: ATOM     36  CBD HEM A1501      52.565  83.362  12.888 -0.52 +0.11    +0.102 C 
DOCKED: BRANCH  36  37
DOCKED: ATOM     37  CGD HEM A1501      52.390  84.818  13.279 -0.46 +0.27    +0.186 C 
DOCKED: ATOM     38  O1D HEM A1501      53.481  85.418  13.398 -0.56 -1.12    -0.647 OA
DOCKED: ATOM     39  O2D HEM A1501      51.214  85.378  13.421 -0.69 -0.98    -0.647 OA
DOCKED: ENDBRANCH  36  37
DOCKED: ENDBRANCH  35  36
DOCKED: ENDBRANCH  22  35
DOCKED: BRANCH  17  40
DOCKED: ATOM     40  CAC HEM A1501      55.872  76.086  15.882 -0.55 +0.00    +0.001 C 
DOCKED: ATOM     41  CBC HEM A1501      55.187  75.471  16.859 -0.62 +0.00    +0.000 C 
DOCKED: ENDBRANCH  17  40
DOCKED: BRANCH  12  42
DOCKED: ATOM     42  CAB HEM A1501      55.377  72.392   8.965 -0.55 +0.00    +0.001 C 
DOCKED: ATOM     43  CBB HEM A1501      55.930  71.734   9.965 -0.58 +0.00    +0.000 C 
DOCKED: ENDBRANCH  12  42
DOCKED: TORSDOF 8
DOCKED: TER
DOCKED: ENDMDL
________________________________________________________________________________


	BEGINNING GENETIC ALGORITHM DOCKING 17 of 100
Run: 17 Seed: 398816672 1303934478 [ Run 17 of 100 GA/GALS ]
Beginning LAMARCKIAN GENETIC ALGORITHM (LGA), with a maximum of 2500000 energy evaluations.

Final-Value: -23.605


	FINAL GENETIC ALGORITHM DOCKED STATE
	_______________________________________________


Detailed state:  trans 54.992 78.882 10.505 quatxyzw -0.171125 0.973599 -0.150262 -0.015590 center 54.495 78.699 10.493 ntor 8 118.3340 -101.0585 -31.6733 -120.8203 18.2498 4.0705 168.3996 -170.9846
State:	 54.992  78.882  10.505  -0.171  0.974 -0.150 -178.213    118.33 -101.06  -31.67 -120.82   18.25    4.07  168.40 -170.98

DOCKED: MODEL       17
DOCKED: USER    Run = 17
DOCKED: USER    DPF = C:/Users/georg/Desktop/fall2024/4-Computational_Biology/Assignment/executables/HEM.dpf
DOCKED: USER  
DOCKED: USER    Estimated Free Energy of Binding    =  -20.63 kcal/mol  [=(1)+(2)+(3)-(4)]
DOCKED: USER    Estimated Inhibition Constant, Ki   =  754.26 aM (attomolar)  [Temperature = 298.15 K]
DOCKED: USER    
DOCKED: USER    (1) Final Intermolecular Energy     =  -23.02 kcal/mol
DOCKED: USER        vdW + Hbond + desolv Energy     =  -18.49 kcal/mol
DOCKED: USER        Electrostatic Energy            =   -4.53 kcal/mol
DOCKED: USER    (2) Final Total Internal Energy     =   -0.59 kcal/mol
DOCKED: USER    (3) Torsional Free Energy           =   +2.39 kcal/mol
DOCKED: USER    (4) Unbound System's Energy  [=(2)] =   -0.59 kcal/mol
DOCKED: USER    
DOCKED: USER    
DOCKED: USER    NEWDPF move HEM.pdbqt
DOCKED: USER    NEWDPF about 54.495000 78.699000 10.493000
DOCKED: USER    NEWDPF tran0 54.992185 78.882136 10.504756
DOCKED: USER    NEWDPF quaternion0 -0.171125 0.973599 -0.150262 -0.015590
DOCKED: USER    NEWDPF axisangle0 -0.171146 0.973717 -0.150280 -178.213468
DOCKED: USER    NEWDPF quat0 -0.171146 0.973717 -0.150280 -178.213468
DOCKED: USER    NEWDPF dihe0 118.33 -101.06 -31.67 -120.82 18.25 4.07 168.40 -170.98 
DOCKED: USER  keepresnum = 1 
DOCKED: USER  
DOCKED: REMARK  8 active torsions:
DOCKED: REMARK  status: ('A' for Active; 'I' for Inactive)
DOCKED: REMARK    1  A    between atoms: C2A_3624  and  CAA_3628 
DOCKED: REMARK    2  A    between atoms: CAA_3628  and  CBA_3629 
DOCKED: REMARK    3  A    between atoms: CBA_3629  and  CGA_3630 
DOCKED: REMARK    4  A    between atoms: C3B_3635  and  CAB_3638 
DOCKED: REMARK    5  A    between atoms: C3C_3642  and  CAC_3645 
DOCKED: REMARK    6  A    between atoms: C3D_3649  and  CAD_3652 
DOCKED: REMARK    7  A    between atoms: CAD_3652  and  CBD_3653 
DOCKED: REMARK    8  A    between atoms: CBD_3653  and  CGD_3654 
DOCKED: USER                              x       y       z     vdW  Elec       q    Type
DOCKED: USER                           _______ _______ _______ _____ _____    ______ ____
DOCKED: ROOT
DOCKED: ATOM      1  CHA HEM A1501      54.255  81.113  10.202 -0.27 +0.04    +0.038 A 
DOCKED: ATOM      2  CHB HEM A1501      54.643  77.310   7.282 -0.38 +0.03    +0.038 A 
DOCKED: ATOM      3  CHC HEM A1501      55.497  74.454  11.075 -0.41 +0.01    +0.038 A 
DOCKED: ATOM      4  CHD HEM A1501      55.175  78.274  13.994 -0.38 +0.02    +0.038 A 
DOCKED: ATOM      5  C1A HEM A1501      54.313  80.329   9.054 -0.26 +0.08    +0.079 A 
DOCKED: ATOM      6  C2A HEM A1501      54.153  80.784   7.669 -0.35 -0.01    -0.006 A 
DOCKED: ATOM      7  C3A HEM A1501      54.261  79.718   6.890 -0.36 -0.01    -0.007 A 
DOCKED: ATOM      8  C4A HEM A1501      54.497  78.600   7.753 -0.32 +0.06    +0.079 A 
DOCKED: ATOM      9  CMA HEM A1501      54.181  79.671   5.395 -0.49 +0.03    +0.032 C 
DOCKED: ATOM     10  C1B HEM A1501      54.880  76.185   8.050 -0.36 +0.04    +0.079 A 
DOCKED: ATOM     11  C2B HEM A1501      55.007  74.839   7.505 -0.48 -0.00    -0.003 A 
DOCKED: ATOM     12  C3B HEM A1501      55.232  74.038   8.579 -0.45 +0.01    +0.015 A 
DOCKED: ATOM     13  C4B HEM A1501      55.266  74.895   9.761 -0.37 +0.03    +0.083 A 
DOCKED: ATOM     14  CMB HEM A1501      54.893  74.488   6.047 -0.59 +0.02    +0.033 C 
DOCKED: ATOM     15  C1C HEM A1501      55.528  75.198  12.223 -0.35 +0.03    +0.079 A 
DOCKED: ATOM     16  C2C HEM A1501      55.854  74.698  13.530 -0.43 -0.00    -0.003 A 
DOCKED: ATOM     17  C3C HEM A1501      55.786  75.761  14.372 -0.39 +0.01    +0.015 A 
DOCKED: ATOM     18  C4C HEM A1501      55.402  76.927  13.551 -0.31 +0.03    +0.083 A 
DOCKED: ATOM     19  CMC HEM A1501      56.193  73.248  13.814 -0.54 +0.01    +0.033 C 
DOCKED: ATOM     20  C1D HEM A1501      54.832  79.413  13.225 -0.31 +0.05    +0.079 A 
DOCKED: ATOM     21  C2D HEM A1501      54.628  80.728  13.752 -0.38 -0.00    -0.007 A 
DOCKED: ATOM     22  C3D HEM A1501      54.368  81.531  12.688 -0.33 -0.00    -0.006 A 
DOCKED: ATOM     23  C4D HEM A1501      54.420  80.701  11.501 -0.22 +0.07    +0.079 A 
DOCKED: ATOM     24  CMD HEM A1501      54.693  81.131  15.171 -0.46 +0.01    +0.032 C 
DOCKED: ATOM     25  NA  HEM A1501      54.555  78.980   9.061 -0.18 -0.20    -0.246 N 
DOCKED: ATOM     26  NB  HEM A1501      55.028  76.178   9.417 -0.16 -0.12    -0.246 N 
DOCKED: ATOM     27  NC  HEM A1501      55.290  76.532  12.281 -0.13 -0.11    -0.246 N 
DOCKED: ATOM     28  ND  HEM A1501      54.706  79.422  11.864 -0.12 -0.17    -0.246 N 
DOCKED: ATOM     29 FE   HEM A1501      54.905  77.783  10.677 -0.07 +0.00    +0.000 Fe
DOCKED: ENDROOT
DOCKED: BRANCH   6  30
DOCKED: ATOM     30  CAA HEM A1501      53.919  82.172   7.185 -0.44 +0.06    +0.039 C 
DOCKED: BRANCH  30  31
DOCKED: ATOM     31  CBA HEM A1501      52.441  82.467   7.023 -0.57 +0.16    +0.102 C 
DOCKED: BRANCH  31  32
DOCKED: ATOM     32  CGA HEM A1501      52.141  83.709   6.229 -0.64 +0.36    +0.186 C 
DOCKED: ATOM     33  O1A HEM A1501      51.083  83.745   5.559 -1.01 -1.35    -0.647 OA
DOCKED: ATOM     34  O2A HEM A1501      52.935  84.669   6.307 -1.22 -1.70    -0.647 OA
DOCKED: ENDBRANCH  31  32
DOCKED: ENDBRANCH  30  31
DOCKED: ENDBRANCH   6  30
DOCKED: BRANCH  22  35
DOCKED: ATOM     35  CAD HEM A1501      54.092  82.984  12.793 -0.40 +0.04    +0.039 C 
DOCKED: BRANCH  35  36
DOCKED: ATOM     36  CBD HEM A1501      52.613  83.267  13.053 -0.52 +0.11    +0.102 C 
DOCKED: BRANCH  36  37
DOCKED: ATOM     37  CGD HEM A1501      52.278  84.746  13.018 -0.46 +0.27    +0.186 C 
DOCKED: ATOM     38  O1D HEM A1501      53.113  85.414  12.368 -0.47 -1.50    -0.647 OA
DOCKED: ATOM     39  O2D HEM A1501      51.199  85.243  13.571 -0.64 -0.93    -0.647 OA
DOCKED: ENDBRANCH  36  37
DOCKED: ENDBRANCH  35  36
DOCKED: ENDBRANCH  22  35
DOCKED: BRANCH  17  40
DOCKED: ATOM     40  CAC HEM A1501      56.028  75.794  15.819 -0.55 +0.00    +0.001 C 
DOCKED: ATOM     41  CBC HEM A1501      55.171  76.203  16.768 -0.60 +0.00    +0.000 C 
DOCKED: ENDBRANCH  17  40
DOCKED: BRANCH  12  42
DOCKED: ATOM     42  CAB HEM A1501      55.430  72.573   8.677 -0.53 +0.00    +0.001 C 
DOCKED: ATOM     43  CBB HEM A1501      54.792  71.671   9.395 -0.55 +0.00    +0.000 C 
DOCKED: ENDBRANCH  12  42
DOCKED: TORSDOF 8
DOCKED: TER
DOCKED: ENDMDL
________________________________________________________________________________


	BEGINNING GENETIC ALGORITHM DOCKING 18 of 100
Run: 18 Seed: 1575009187 1947921674 [ Run 18 of 100 GA/GALS ]
Beginning LAMARCKIAN GENETIC ALGORITHM (LGA), with a maximum of 2500000 energy evaluations.

Final-Value: -23.445


	FINAL GENETIC ALGORITHM DOCKED STATE
	_______________________________________________


Detailed state:  trans 54.967 78.681 10.369 quatxyzw 0.154045 -0.974956 0.160330 -0.004953 center 54.495 78.699 10.493 ntor 8 125.1445 164.7236 136.5419 -114.5079 16.3839 -6.4953 170.5452 -179.2996
State:	 54.967  78.681  10.369   0.154 -0.975  0.160 -179.432    125.14  164.72  136.54 -114.51   16.38   -6.50  170.55 -179.30

DOCKED: MODEL       18
DOCKED: USER    Run = 18
DOCKED: USER    DPF = C:/Users/georg/Desktop/fall2024/4-Computational_Biology/Assignment/executables/HEM.dpf
DOCKED: USER  
DOCKED: USER    Estimated Free Energy of Binding    =  -20.49 kcal/mol  [=(1)+(2)+(3)-(4)]
DOCKED: USER    Estimated Inhibition Constant, Ki   =  951.01 aM (attomolar)  [Temperature = 298.15 K]
DOCKED: USER    
DOCKED: USER    (1) Final Intermolecular Energy     =  -22.88 kcal/mol
DOCKED: USER        vdW + Hbond + desolv Energy     =  -18.44 kcal/mol
DOCKED: USER        Electrostatic Energy            =   -4.44 kcal/mol
DOCKED: USER    (2) Final Total Internal Energy     =   -0.56 kcal/mol
DOCKED: USER    (3) Torsional Free Energy           =   +2.39 kcal/mol
DOCKED: USER    (4) Unbound System's Energy  [=(2)] =   -0.56 kcal/mol
DOCKED: USER    
DOCKED: USER    
DOCKED: USER    NEWDPF move HEM.pdbqt
DOCKED: USER    NEWDPF about 54.495000 78.699000 10.493000
DOCKED: USER    NEWDPF tran0 54.967092 78.681138 10.369132
DOCKED: USER    NEWDPF quaternion0 0.154045 -0.974956 0.160330 -0.004953
DOCKED: USER    NEWDPF axisangle0 0.154047 -0.974968 0.160332 -179.432412
DOCKED: USER    NEWDPF quat0 0.154047 -0.974968 0.160332 -179.432412
DOCKED: USER    NEWDPF dihe0 125.14 164.72 136.54 -114.51 16.38 -6.50 170.55 -179.30 
DOCKED: USER  keepresnum = 1 
DOCKED: USER  
DOCKED: REMARK  8 active torsions:
DOCKED: REMARK  status: ('A' for Active; 'I' for Inactive)
DOCKED: REMARK    1  A    between atoms: C2A_3624  and  CAA_3628 
DOCKED: REMARK    2  A    between atoms: CAA_3628  and  CBA_3629 
DOCKED: REMARK    3  A    between atoms: CBA_3629  and  CGA_3630 
DOCKED: REMARK    4  A    between atoms: C3B_3635  and  CAB_3638 
DOCKED: REMARK    5  A    between atoms: C3C_3642  and  CAC_3645 
DOCKED: REMARK    6  A    between atoms: C3D_3649  and  CAD_3652 
DOCKED: REMARK    7  A    between atoms: CAD_3652  and  CBD_3653 
DOCKED: REMARK    8  A    between atoms: CBD_3653  and  CGD_3654 
DOCKED: USER                              x       y       z     vdW  Elec       q    Type
DOCKED: USER                           _______ _______ _______ _____ _____    ______ ____
DOCKED: ROOT
DOCKED: ATOM      1  CHA HEM A1501      54.310  80.932  10.030 -0.27 +0.04    +0.038 A 
DOCKED: ATOM      2  CHB HEM A1501      54.453  77.044   7.201 -0.42 +0.03    +0.038 A 
DOCKED: ATOM      3  CHC HEM A1501      55.314  74.252  11.040 -0.41 +0.01    +0.038 A 
DOCKED: ATOM      4  CHD HEM A1501      55.237  78.153  13.866 -0.37 +0.02    +0.038 A 
DOCKED: ATOM      5  C1A HEM A1501      54.300  80.117   8.903 -0.27 +0.07    +0.079 A 
DOCKED: ATOM      6  C2A HEM A1501      54.114  80.544   7.512 -0.36 -0.01    -0.006 A 
DOCKED: ATOM      7  C3A HEM A1501      54.155  79.455   6.758 -0.38 -0.01    -0.007 A 
DOCKED: ATOM      8  C4A HEM A1501      54.374  78.351   7.642 -0.34 +0.06    +0.079 A 
DOCKED: ATOM      9  CMA HEM A1501      54.025  79.374   5.267 -0.48 +0.03    +0.032 C 
DOCKED: ATOM     10  C1B HEM A1501      54.669  75.930   7.991 -0.39 +0.04    +0.079 A 
DOCKED: ATOM     11  C2B HEM A1501      54.725  74.567   7.478 -0.49 -0.00    -0.003 A 
DOCKED: ATOM     12  C3B HEM A1501      54.952  73.784   8.565 -0.46 +0.01    +0.015 A 
DOCKED: ATOM     13  C4B HEM A1501      55.058  74.669   9.722 -0.38 +0.03    +0.083 A 
DOCKED: ATOM     14  CMB HEM A1501      54.551  74.184   6.034 -0.60 +0.02    +0.033 C 
DOCKED: ATOM     15  C1C HEM A1501      55.410  75.022  12.167 -0.35 +0.03    +0.079 A 
DOCKED: ATOM     16  C2C HEM A1501      55.758  74.542  13.476 -0.43 -0.00    -0.003 A 
DOCKED: ATOM     17  C3C HEM A1501      55.759  75.628  14.290 -0.38 +0.01    +0.015 A 
DOCKED: ATOM     18  C4C HEM A1501      55.396  76.788  13.452 -0.31 +0.03    +0.083 A 
DOCKED: ATOM     19  CMC HEM A1501      56.048  73.088  13.787 -0.54 +0.01    +0.033 C 
DOCKED: ATOM     20  C1D HEM A1501      54.915  79.286  13.078 -0.29 +0.05    +0.079 A 
DOCKED: ATOM     21  C2D HEM A1501      54.781  80.621  13.576 -0.36 -0.00    -0.007 A 
DOCKED: ATOM     22  C3D HEM A1501      54.519  81.407  12.501 -0.30 -0.00    -0.006 A 
DOCKED: ATOM     23  C4D HEM A1501      54.500  80.546  11.334 -0.21 +0.07    +0.079 A 
DOCKED: ATOM     24  CMD HEM A1501      54.907  81.057  14.982 -0.45 +0.01    +0.032 C 
DOCKED: ATOM     25  NA  HEM A1501      54.488  78.761   8.937 -0.20 -0.19    -0.246 N 
DOCKED: ATOM     26  NB  HEM A1501      54.860  75.952   9.352 -0.19 -0.12    -0.246 N 
DOCKED: ATOM     27  NC  HEM A1501      55.228  76.366  12.197 -0.12 -0.10    -0.246 N 
DOCKED: ATOM     28  ND  HEM A1501      54.747  79.266  11.722 -0.09 -0.17    -0.246 N 
DOCKED: ATOM     29 FE   HEM A1501      54.842  77.591  10.573 -0.07 +0.00    +0.000 Fe
DOCKED: ENDROOT
DOCKED: BRANCH   6  30
DOCKED: ATOM     30  CAA HEM A1501      53.920  81.928   6.999 -0.44 +0.05    +0.039 C 
DOCKED: BRANCH  30  31
DOCKED: ATOM     31  CBA HEM A1501      52.452  82.297   6.924 -0.57 +0.16    +0.102 C 
DOCKED: BRANCH  31  32
DOCKED: ATOM     32  CGA HEM A1501      52.168  83.554   6.148 -0.64 +0.34    +0.186 C 
DOCKED: ATOM     33  O1A HEM A1501      52.922  84.540   6.317 -1.20 -1.64    -0.647 OA
DOCKED: ATOM     34  O2A HEM A1501      51.222  83.547   5.334 -1.09 -1.26    -0.647 OA
DOCKED: ENDBRANCH  31  32
DOCKED: ENDBRANCH  30  31
DOCKED: ENDBRANCH   6  30
DOCKED: BRANCH  22  35
DOCKED: ATOM     35  CAD HEM A1501      54.305  82.872  12.576 -0.37 +0.04    +0.039 C 
DOCKED: BRANCH  35  36
DOCKED: ATOM     36  CBD HEM A1501      52.821  83.228  12.669 -0.50 +0.12    +0.102 C 
DOCKED: BRANCH  36  37
DOCKED: ATOM     37  CGD HEM A1501      52.580  84.714  12.856 -0.43 +0.28    +0.186 C 
DOCKED: ATOM     38  O1D HEM A1501      53.483  85.416  12.350 -0.51 -1.54    -0.647 OA
DOCKED: ATOM     39  O2D HEM A1501      51.509  85.191  13.441 -0.49 -0.95    -0.647 OA
DOCKED: ENDBRANCH  36  37
DOCKED: ENDBRANCH  35  36
DOCKED: ENDBRANCH  22  35
DOCKED: BRANCH  17  40
DOCKED: ATOM     40  CAC HEM A1501      56.048  75.688  15.728 -0.54 +0.00    +0.001 C 
DOCKED: ATOM     41  CBC HEM A1501      55.197  76.035  16.705 -0.62 +0.00    +0.000 C 
DOCKED: ENDBRANCH  17  40
DOCKED: BRANCH  12  42
DOCKED: ATOM     42  CAB HEM A1501      55.095  72.316   8.696 -0.57 +0.00    +0.001 C 
DOCKED: ATOM     43  CBB HEM A1501      55.908  71.600   9.447 -0.56 +0.00    +0.000 C 
DOCKED: ENDBRANCH  12  42
DOCKED: TORSDOF 8
DOCKED: TER
DOCKED: ENDMDL
________________________________________________________________________________


	BEGINNING GENETIC ALGORITHM DOCKING 19 of 100
Run: 19 Seed: 443362339 585564643 [ Run 19 of 100 GA/GALS ]
Beginning LAMARCKIAN GENETIC ALGORITHM (LGA), with a maximum of 2500000 energy evaluations.

Final-Value: -23.590


	FINAL GENETIC ALGORITHM DOCKED STATE
	_______________________________________________


Detailed state:  trans 54.948 78.813 10.630 quatxyzw -0.160667 0.975987 -0.147079 -0.001896 center 54.495 78.699 10.493 ntor 8 121.7704 172.5141 -30.4311 -116.4308 14.3920 6.9535 159.4505 -178.7216
State:	 54.948  78.813  10.630  -0.161  0.976 -0.147 -179.783    121.77  172.51  -30.43 -116.43   14.39    6.95  159.45 -178.72

DOCKED: MODEL       19
DOCKED: USER    Run = 19
DOCKED: USER    DPF = C:/Users/georg/Desktop/fall2024/4-Computational_Biology/Assignment/executables/HEM.dpf
DOCKED: USER  
DOCKED: USER    Estimated Free Energy of Binding    =  -20.69 kcal/mol  [=(1)+(2)+(3)-(4)]
DOCKED: USER    Estimated Inhibition Constant, Ki   =  686.18 aM (attomolar)  [Temperature = 298.15 K]
DOCKED: USER    
DOCKED: USER    (1) Final Intermolecular Energy     =  -23.07 kcal/mol
DOCKED: USER        vdW + Hbond + desolv Energy     =  -18.44 kcal/mol
DOCKED: USER        Electrostatic Energy            =   -4.63 kcal/mol
DOCKED: USER    (2) Final Total Internal Energy     =   -0.52 kcal/mol
DOCKED: USER    (3) Torsional Free Energy           =   +2.39 kcal/mol
DOCKED: USER    (4) Unbound System's Energy  [=(2)] =   -0.52 kcal/mol
DOCKED: USER    
DOCKED: USER    
DOCKED: USER    NEWDPF move HEM.pdbqt
DOCKED: USER    NEWDPF about 54.495000 78.699000 10.493000
DOCKED: USER    NEWDPF tran0 54.947521 78.812985 10.629767
DOCKED: USER    NEWDPF quaternion0 -0.160667 0.975987 -0.147079 -0.001896
DOCKED: USER    NEWDPF axisangle0 -0.160667 0.975989 -0.147079 -179.782751
DOCKED: USER    NEWDPF quat0 -0.160667 0.975989 -0.147079 -179.782751
DOCKED: USER    NEWDPF dihe0 121.77 172.51 -30.43 -116.43 14.39 6.95 159.45 -178.72 
DOCKED: USER  keepresnum = 1 
DOCKED: USER  
DOCKED: REMARK  8 active torsions:
DOCKED: REMARK  status: ('A' for Active; 'I' for Inactive)
DOCKED: REMARK    1  A    between atoms: C2A_3624  and  CAA_3628 
DOCKED: REMARK    2  A    between atoms: CAA_3628  and  CBA_3629 
DOCKED: REMARK    3  A    between atoms: CBA_3629  and  CGA_3630 
DOCKED: REMARK    4  A    between atoms: C3B_3635  and  CAB_3638 
DOCKED: REMARK    5  A    between atoms: C3C_3642  and  CAC_3645 
DOCKED: REMARK    6  A    between atoms: C3D_3649  and  CAD_3652 
DOCKED: REMARK    7  A    between atoms: CAD_3652  and  CBD_3653 
DOCKED: REMARK    8  A    between atoms: CBD_3653  and  CGD_3654 
DOCKED: USER                              x       y       z     vdW  Elec       q    Type
DOCKED: USER                           _______ _______ _______ _____ _____    ______ ____
DOCKED: ROOT
DOCKED: ATOM      1  CHA HEM A1501      54.260  81.063  10.350 -0.27 +0.04    +0.038 A 
DOCKED: ATOM      2  CHB HEM A1501      54.479  77.259   7.413 -0.40 +0.03    +0.038 A 
DOCKED: ATOM      3  CHC HEM A1501      55.355  74.372  11.178 -0.41 +0.01    +0.038 A 
DOCKED: ATOM      4  CHD HEM A1501      55.201  78.190  14.112 -0.39 +0.02    +0.038 A 
DOCKED: ATOM      5  C1A HEM A1501      54.269  80.280   9.200 -0.26 +0.08    +0.079 A 
DOCKED: ATOM      6  C2A HEM A1501      54.087  80.744   7.820 -0.35 -0.01    -0.006 A 
DOCKED: ATOM      7  C3A HEM A1501      54.149  79.677   7.036 -0.37 -0.01    -0.007 A 
DOCKED: ATOM      8  C4A HEM A1501      54.378  78.552   7.890 -0.33 +0.06    +0.079 A 
DOCKED: ATOM      9  CMA HEM A1501      54.031  79.637   5.543 -0.48 +0.03    +0.032 C 
DOCKED: ATOM     10  C1B HEM A1501      54.707  76.127   8.173 -0.37 +0.04    +0.079 A 
DOCKED: ATOM     11  C2B HEM A1501      54.786  74.779   7.622 -0.48 -0.00    -0.003 A 
DOCKED: ATOM     12  C3B HEM A1501      55.017  73.970   8.688 -0.45 +0.01    +0.015 A 
DOCKED: ATOM     13  C4B HEM A1501      55.102  74.822   9.870 -0.37 +0.03    +0.083 A 
DOCKED: ATOM     14  CMB HEM A1501      54.628  74.435   6.166 -0.59 +0.02    +0.033 C 
DOCKED: ATOM     15  C1C HEM A1501      55.432  75.112  12.326 -0.35 +0.03    +0.079 A 
DOCKED: ATOM     16  C2C HEM A1501      55.778  74.599  13.624 -0.43 -0.00    -0.003 A 
DOCKED: ATOM     17  C3C HEM A1501      55.758  75.662  14.469 -0.38 +0.01    +0.015 A 
DOCKED: ATOM     18  C4C HEM A1501      55.383  76.839  13.661 -0.31 +0.03    +0.083 A 
DOCKED: ATOM     19  CMC HEM A1501      56.088  73.141  13.896 -0.55 +0.01    +0.033 C 
DOCKED: ATOM     20  C1D HEM A1501      54.868  79.340  13.355 -0.32 +0.04    +0.079 A 
DOCKED: ATOM     21  C2D HEM A1501      54.710  80.659  13.889 -0.39 -0.00    -0.007 A 
DOCKED: ATOM     22  C3D HEM A1501      54.445  81.471  12.834 -0.33 -0.00    -0.006 A 
DOCKED: ATOM     23  C4D HEM A1501      54.446  80.642  11.644 -0.23 +0.06    +0.079 A 
DOCKED: ATOM     24  CMD HEM A1501      54.820  81.056  15.307 -0.46 +0.01    +0.032 C 
DOCKED: ATOM     25  NA  HEM A1501      54.477  78.926   9.197 -0.18 -0.20    -0.246 N 
DOCKED: ATOM     26  NB  HEM A1501      54.888  76.112   9.535 -0.10 -0.12    -0.246 N 
DOCKED: ATOM     27  NC  HEM A1501      55.230  76.451  12.393 -0.14 -0.10    -0.246 N 
DOCKED: ATOM     28  ND  HEM A1501      54.709  79.356  11.997 -0.12 -0.17    -0.246 N 
DOCKED: ATOM     29 FE   HEM A1501      54.837  77.716  10.802 -0.07 +0.00    +0.000 Fe
DOCKED: ENDROOT
DOCKED: BRANCH   6  30
DOCKED: ATOM     30  CAA HEM A1501      53.876  82.138   7.345 -0.43 +0.06    +0.039 C 
DOCKED: BRANCH  30  31
DOCKED: ATOM     31  CBA HEM A1501      52.421  82.403   7.012 -0.57 +0.16    +0.102 C 
DOCKED: BRANCH  31  32
DOCKED: ATOM     32  CGA HEM A1501      52.176  83.704   6.298 -0.64 +0.36    +0.186 C 
DOCKED: ATOM     33  O1A HEM A1501      51.200  83.778   5.515 -1.01 -1.32    -0.647 OA
DOCKED: ATOM     34  O2A HEM A1501      52.927  84.669   6.549 -1.14 -1.78    -0.647 OA
DOCKED: ENDBRANCH  31  32
DOCKED: ENDBRANCH  30  31
DOCKED: ENDBRANCH   6  30
DOCKED: BRANCH  22  35
DOCKED: ATOM     35  CAD HEM A1501      54.208  82.929  12.949 -0.39 +0.04    +0.039 C 
DOCKED: BRANCH  35  36
DOCKED: ATOM     36  CBD HEM A1501      52.720  83.260  13.056 -0.52 +0.11    +0.102 C 
DOCKED: BRANCH  36  37
DOCKED: ATOM     37  CGD HEM A1501      52.435  84.747  12.957 -0.44 +0.28    +0.186 C 
DOCKED: ATOM     38  O1D HEM A1501      53.305  85.361  12.302 -0.52 -1.52    -0.647 OA
DOCKED: ATOM     39  O2D HEM A1501      51.361  85.299  13.465 -0.60 -0.97    -0.647 OA
DOCKED: ENDBRANCH  36  37
DOCKED: ENDBRANCH  35  36
DOCKED: ENDBRANCH  22  35
DOCKED: BRANCH  17  40
DOCKED: ATOM     40  CAC HEM A1501      56.035  75.685  15.910 -0.56 +0.00    +0.001 C 
DOCKED: ATOM     41  CBC HEM A1501      55.191  76.052  16.886 -0.64 +0.00    +0.000 C 
DOCKED: ENDBRANCH  17  40
DOCKED: BRANCH  12  42
DOCKED: ATOM     42  CAB HEM A1501      55.181  72.500   8.778 -0.56 +0.00    +0.001 C 
DOCKED: ATOM     43  CBB HEM A1501      55.900  71.770   9.607 -0.56 +0.00    +0.000 C 
DOCKED: ENDBRANCH  12  42
DOCKED: TORSDOF 8
DOCKED: TER
DOCKED: ENDMDL
________________________________________________________________________________


	BEGINNING GENETIC ALGORITHM DOCKING 20 of 100
Run: 20 Seed: 1681159483 228421872 [ Run 20 of 100 GA/GALS ]
Beginning LAMARCKIAN GENETIC ALGORITHM (LGA), with a maximum of 2500000 energy evaluations.

Final-Value: -23.339


	FINAL GENETIC ALGORITHM DOCKED STATE
	_______________________________________________


Detailed state:  trans 54.906 79.064 10.472 quatxyzw 0.185795 -0.963221 0.189121 0.043813 center 54.495 78.699 10.493 ntor 8 -10.1951 -51.5179 -30.1489 -153.2833 3.3099 -24.2452 178.5132 -152.8559
State:	 54.906  79.064  10.472   0.186 -0.964  0.189 174.978    -10.20  -51.52  -30.15 -153.28    3.31  -24.25  178.51 -152.86

DOCKED: MODEL       20
DOCKED: USER    Run = 20
DOCKED: USER    DPF = C:/Users/georg/Desktop/fall2024/4-Computational_Biology/Assignment/executables/HEM.dpf
DOCKED: USER  
DOCKED: USER    Estimated Free Energy of Binding    =  -20.35 kcal/mol  [=(1)+(2)+(3)-(4)]
DOCKED: USER    Estimated Inhibition Constant, Ki   =    1.21 fM (femtomolar)  [Temperature = 298.15 K]
DOCKED: USER    
DOCKED: USER    (1) Final Intermolecular Energy     =  -22.74 kcal/mol
DOCKED: USER        vdW + Hbond + desolv Energy     =  -18.43 kcal/mol
DOCKED: USER        Electrostatic Energy            =   -4.31 kcal/mol
DOCKED: USER    (2) Final Total Internal Energy     =   -0.60 kcal/mol
DOCKED: USER    (3) Torsional Free Energy           =   +2.39 kcal/mol
DOCKED: USER    (4) Unbound System's Energy  [=(2)] =   -0.60 kcal/mol
DOCKED: USER    
DOCKED: USER    
DOCKED: USER    NEWDPF move HEM.pdbqt
DOCKED: USER    NEWDPF about 54.495000 78.699000 10.493000
DOCKED: USER    NEWDPF tran0 54.905901 79.063616 10.472468
DOCKED: USER    NEWDPF quaternion0 0.185795 -0.963221 0.189121 0.043813
DOCKED: USER    NEWDPF axisangle0 0.185973 -0.964146 0.189303 174.977793
DOCKED: USER    NEWDPF quat0 0.185973 -0.964146 0.189303 174.977793
DOCKED: USER    NEWDPF dihe0 -10.20 -51.52 -30.15 -153.28 3.31 -24.25 178.51 -152.86 
DOCKED: USER  keepresnum = 1 
DOCKED: USER  
DOCKED: REMARK  8 active torsions:
DOCKED: REMARK  status: ('A' for Active; 'I' for Inactive)
DOCKED: REMARK    1  A    between atoms: C2A_3624  and  CAA_3628 
DOCKED: REMARK    2  A    between atoms: CAA_3628  and  CBA_3629 
DOCKED: REMARK    3  A    between atoms: CBA_3629  and  CGA_3630 
DOCKED: REMARK    4  A    between atoms: C3B_3635  and  CAB_3638 
DOCKED: REMARK    5  A    between atoms: C3C_3642  and  CAC_3645 
DOCKED: REMARK    6  A    between atoms: C3D_3649  and  CAD_3652 
DOCKED: REMARK    7  A    between atoms: CAD_3652  and  CBD_3653 
DOCKED: REMARK    8  A    between atoms: CBD_3653  and  CGD_3654 
DOCKED: USER                              x       y       z     vdW  Elec       q    Type
DOCKED: USER                           _______ _______ _______ _____ _____    ______ ____
DOCKED: ROOT
DOCKED: ATOM      1  CHA HEM A1501      54.108  81.236   9.967 -0.30 +0.04    +0.038 A 
DOCKED: ATOM      2  CHB HEM A1501      54.827  77.262   7.353 -0.35 +0.02    +0.038 A 
DOCKED: ATOM      3  CHC HEM A1501      55.537  74.709  11.385 -0.40 +0.01    +0.038 A 
DOCKED: ATOM      4  CHD HEM A1501      54.883  78.703  14.000 -0.40 +0.02    +0.038 A 
DOCKED: ATOM      5  C1A HEM A1501      54.270  80.379   8.884 -0.28 +0.08    +0.079 A 
DOCKED: ATOM      6  C2A HEM A1501      54.184  80.731   7.463 -0.35 -0.01    -0.006 A 
DOCKED: ATOM      7  C3A HEM A1501      54.383  79.620   6.769 -0.36 -0.01    -0.007 A 
DOCKED: ATOM      8  C4A HEM A1501      54.603  78.574   7.722 -0.31 +0.06    +0.079 A 
DOCKED: ATOM      9  CMA HEM A1501      54.402  79.468   5.278 -0.51 +0.02    +0.032 C 
DOCKED: ATOM     10  C1B HEM A1501      55.055  76.203   8.213 -0.32 +0.04    +0.079 A 
DOCKED: ATOM     11  C2B HEM A1501      55.267  74.829   7.774 -0.47 -0.00    -0.003 A 
DOCKED: ATOM     12  C3B HEM A1501      55.451  74.113   8.913 -0.44 +0.01    +0.015 A 
DOCKED: ATOM     13  C4B HEM A1501      55.376  75.050  10.031 -0.36 +0.03    +0.083 A 
DOCKED: ATOM     14  CMB HEM A1501      55.262  74.375   6.340 -0.58 +0.02    +0.033 C 
DOCKED: ATOM     15  C1C HEM A1501      55.464  75.531  12.478 -0.33 +0.03    +0.079 A 
DOCKED: ATOM     16  C2C HEM A1501      55.722  75.135  13.835 -0.40 -0.00    -0.003 A 
DOCKED: ATOM     17  C3C HEM A1501      55.560  76.250  14.593 -0.40 +0.01    +0.015 A 
DOCKED: ATOM     18  C4C HEM A1501      55.188  77.339  13.669 -0.33 +0.04    +0.083 A 
DOCKED: ATOM     19  CMC HEM A1501      56.096  73.724  14.241 -0.54 +0.01    +0.033 C 
DOCKED: ATOM     20  C1D HEM A1501      54.548  79.772  13.133 -0.31 +0.05    +0.079 A 
DOCKED: ATOM     21  C2D HEM A1501      54.262  81.110  13.552 -0.40 -0.00    -0.007 A 
DOCKED: ATOM     22  C3D HEM A1501      54.042  81.828  12.420 -0.36 -0.01    -0.006 A 
DOCKED: ATOM     23  C4D HEM A1501      54.203  80.920  11.300 -0.23 +0.07    +0.079 A 
DOCKED: ATOM     24  CMD HEM A1501      54.218  81.612  14.940 -0.44 +0.02    +0.032 C 
DOCKED: ATOM     25  NA  HEM A1501      54.561  79.045   9.001 -0.19 -0.20    -0.246 N 
DOCKED: ATOM     26  NB  HEM A1501      55.113  76.296   9.583 -0.14 -0.12    -0.246 N 
DOCKED: ATOM     27  NC  HEM A1501      55.174  76.854  12.426 -0.09 -0.11    -0.246 N 
DOCKED: ATOM     28  ND  HEM A1501      54.512  79.683  11.770 -0.12 -0.18    -0.246 N 
DOCKED: ATOM     29 FE   HEM A1501      54.849  77.976  10.717 -0.07 +0.00    +0.000 Fe
DOCKED: ENDROOT
DOCKED: BRANCH   6  30
DOCKED: ATOM     30  CAA HEM A1501      53.931  82.072   6.868 -0.44 +0.05    +0.039 C 
DOCKED: BRANCH  30  31
DOCKED: ATOM     31  CBA HEM A1501      52.450  82.393   6.820 -0.58 +0.16    +0.102 C 
DOCKED: BRANCH  31  32
DOCKED: ATOM     32  CGA HEM A1501      52.128  83.744   6.243 -0.64 +0.36    +0.186 C 
DOCKED: ATOM     33  O1A HEM A1501      51.029  83.895   5.661 -0.92 -1.38    -0.647 OA
DOCKED: ATOM     34  O2A HEM A1501      52.948  84.671   6.408 -1.18 -1.74    -0.647 OA
DOCKED: ENDBRANCH  31  32
DOCKED: ENDBRANCH  30  31
DOCKED: ENDBRANCH   6  30
DOCKED: BRANCH  22  35
DOCKED: ATOM     35  CAD HEM A1501      53.707  83.271  12.404 -0.45 +0.05    +0.039 C 
DOCKED: BRANCH  35  36
DOCKED: ATOM     36  CBD HEM A1501      52.317  83.540  12.980 -0.50 +0.12    +0.102 C 
DOCKED: BRANCH  36  37
DOCKED: ATOM     37  CGD HEM A1501      52.146  84.965  13.474 -0.48 +0.27    +0.186 C 
DOCKED: ATOM     38  O1D HEM A1501      53.225  85.596  13.505 -0.36 -1.19    -0.647 OA
DOCKED: ATOM     39  O2D HEM A1501      50.979  85.474  13.781 -0.92 -0.95    -0.647 OA
DOCKED: ENDBRANCH  36  37
DOCKED: ENDBRANCH  35  36
DOCKED: ENDBRANCH  22  35
DOCKED: BRANCH  17  40
DOCKED: ATOM     40  CAC HEM A1501      55.705  76.391  16.046 -0.57 +0.00    +0.001 C 
DOCKED: ATOM     41  CBC HEM A1501      56.688  77.033  16.697 -0.60 +0.00    +0.000 C 
DOCKED: ENDBRANCH  17  40
DOCKED: BRANCH  12  42
DOCKED: ATOM     42  CAB HEM A1501      55.696  72.668   9.127 -0.46 +0.00    +0.001 C 
DOCKED: ATOM     43  CBB HEM A1501      54.873  71.642   9.056 -0.57 +0.00    +0.000 C 
DOCKED: ENDBRANCH  12  42
DOCKED: TORSDOF 8
DOCKED: TER
DOCKED: ENDMDL
________________________________________________________________________________


	BEGINNING GENETIC ALGORITHM DOCKING 21 of 100
Run: 21 Seed: 1310303558 1582836041 [ Run 21 of 100 GA/GALS ]
Beginning LAMARCKIAN GENETIC ALGORITHM (LGA), with a maximum of 2500000 energy evaluations.

Final-Value: -23.532


	FINAL GENETIC ALGORITHM DOCKED STATE
	_______________________________________________


Detailed state:  trans 54.998 78.865 10.637 quatxyzw -0.166601 0.975462 -0.143703 -0.008204 center 54.495 78.699 10.493 ntor 8 120.8318 -89.8896 134.5240 -120.4539 26.9196 12.5165 164.7319 -173.0863
State:	 54.998  78.865  10.637  -0.167  0.975 -0.144 -179.060    120.83  -89.89  134.52 -120.45   26.92   12.52  164.73 -173.09

DOCKED: MODEL       21
DOCKED: USER    Run = 21
DOCKED: USER    DPF = C:/Users/georg/Desktop/fall2024/4-Computational_Biology/Assignment/executables/HEM.dpf
DOCKED: USER  
DOCKED: USER    Estimated Free Energy of Binding    =  -20.54 kcal/mol  [=(1)+(2)+(3)-(4)]
DOCKED: USER    Estimated Inhibition Constant, Ki   =  882.89 aM (attomolar)  [Temperature = 298.15 K]
DOCKED: USER    
DOCKED: USER    (1) Final Intermolecular Energy     =  -22.92 kcal/mol
DOCKED: USER        vdW + Hbond + desolv Energy     =  -18.53 kcal/mol
DOCKED: USER        Electrostatic Energy            =   -4.39 kcal/mol
DOCKED: USER    (2) Final Total Internal Energy     =   -0.61 kcal/mol
DOCKED: USER    (3) Torsional Free Energy           =   +2.39 kcal/mol
DOCKED: USER    (4) Unbound System's Energy  [=(2)] =   -0.61 kcal/mol
DOCKED: USER    
DOCKED: USER    
DOCKED: USER    NEWDPF move HEM.pdbqt
DOCKED: USER    NEWDPF about 54.495000 78.699000 10.493000
DOCKED: USER    NEWDPF tran0 54.998120 78.864533 10.637378
DOCKED: USER    NEWDPF quaternion0 -0.166601 0.975462 -0.143703 -0.008204
DOCKED: USER    NEWDPF axisangle0 -0.166607 0.975495 -0.143708 -179.059876
DOCKED: USER    NEWDPF quat0 -0.166607 0.975495 -0.143708 -179.059876
DOCKED: USER    NEWDPF dihe0 120.83 -89.89 134.52 -120.45 26.92 12.52 164.73 -173.09 
DOCKED: USER  keepresnum = 1 
DOCKED: USER  
DOCKED: REMARK  8 active torsions:
DOCKED: REMARK  status: ('A' for Active; 'I' for Inactive)
DOCKED: REMARK    1  A    between atoms: C2A_3624  and  CAA_3628 
DOCKED: REMARK    2  A    between atoms: CAA_3628  and  CBA_3629 
DOCKED: REMARK    3  A    between atoms: CBA_3629  and  CGA_3630 
DOCKED: REMARK    4  A    between atoms: C3B_3635  and  CAB_3638 
DOCKED: REMARK    5  A    between atoms: C3C_3642  and  CAC_3645 
DOCKED: REMARK    6  A    between atoms: C3D_3649  and  CAD_3652 
DOCKED: REMARK    7  A    between atoms: CAD_3652  and  CBD_3653 
DOCKED: REMARK    8  A    between atoms: CBD_3653  and  CGD_3654 
DOCKED: USER                              x       y       z     vdW  Elec       q    Type
DOCKED: USER                           _______ _______ _______ _____ _____    ______ ____
DOCKED: ROOT
DOCKED: ATOM      1  CHA HEM A1501      54.283  81.107  10.370 -0.27 +0.04    +0.038 A 
DOCKED: ATOM      2  CHB HEM A1501      54.582  77.332   7.403 -0.38 +0.03    +0.038 A 
DOCKED: ATOM      3  CHC HEM A1501      55.461  74.425  11.152 -0.41 +0.01    +0.038 A 
DOCKED: ATOM      4  CHD HEM A1501      55.227  78.215  14.116 -0.39 +0.02    +0.038 A 
DOCKED: ATOM      5  C1A HEM A1501      54.313  80.335   9.213 -0.26 +0.08    +0.079 A 
DOCKED: ATOM      6  C2A HEM A1501      54.138  80.807   7.836 -0.35 -0.01    -0.006 A 
DOCKED: ATOM      7  C3A HEM A1501      54.222  79.748   7.044 -0.36 -0.01    -0.007 A 
DOCKED: ATOM      8  C4A HEM A1501      54.458  78.619   7.890 -0.32 +0.06    +0.079 A 
DOCKED: ATOM      9  CMA HEM A1501      54.118  79.719   5.549 -0.48 +0.03    +0.032 C 
DOCKED: ATOM     10  C1B HEM A1501      54.817  76.196   8.156 -0.37 +0.04    +0.079 A 
DOCKED: ATOM     11  C2B HEM A1501      54.920  74.855   7.594 -0.48 -0.00    -0.003 A 
DOCKED: ATOM     12  C3B HEM A1501      55.152  74.039   8.656 -0.45 +0.01    +0.015 A 
DOCKED: ATOM     13  C4B HEM A1501      55.214  74.883   9.846 -0.38 +0.03    +0.083 A 
DOCKED: ATOM     14  CMB HEM A1501      54.780  74.521   6.135 -0.59 +0.02    +0.033 C 
DOCKED: ATOM     15  C1C HEM A1501      55.517  75.156  12.307 -0.35 +0.03    +0.079 A 
DOCKED: ATOM     16  C2C HEM A1501      55.857  74.637  13.604 -0.43 -0.00    -0.003 A 
DOCKED: ATOM     17  C3C HEM A1501      55.815  75.692  14.457 -0.39 +0.01    +0.015 A 
DOCKED: ATOM     18  C4C HEM A1501      55.432  76.871  13.656 -0.31 +0.03    +0.083 A 
DOCKED: ATOM     19  CMC HEM A1501      56.185  73.181  13.867 -0.55 +0.01    +0.033 C 
DOCKED: ATOM     20  C1D HEM A1501      54.885  79.367  13.366 -0.32 +0.04    +0.079 A 
DOCKED: ATOM     21  C2D HEM A1501      54.705  80.679  13.910 -0.39 -0.00    -0.007 A 
DOCKED: ATOM     22  C3D HEM A1501      54.438  81.497  12.859 -0.33 -0.00    -0.006 A 
DOCKED: ATOM     23  C4D HEM A1501      54.462  80.678  11.662 -0.23 +0.06    +0.079 A 
DOCKED: ATOM     24  CMD HEM A1501      54.796  81.065  15.332 -0.45 +0.01    +0.032 C 
DOCKED: ATOM     25  NA  HEM A1501      54.540  78.984   9.202 -0.18 -0.20    -0.246 N 
DOCKED: ATOM     26  NB  HEM A1501      54.986  76.173   9.520 -0.12 -0.12    -0.246 N 
DOCKED: ATOM     27  NC  HEM A1501      55.296  76.491  12.384 -0.15 -0.10    -0.246 N 
DOCKED: ATOM     28  ND  HEM A1501      54.739  79.393  12.007 -0.13 -0.17    -0.246 N 
DOCKED: ATOM     29 FE   HEM A1501      54.901  77.765  10.799 -0.07 +0.00    +0.000 Fe
DOCKED: ENDROOT
DOCKED: BRANCH   6  30
DOCKED: ATOM     30  CAA HEM A1501      53.913  82.203   7.371 -0.43 +0.06    +0.039 C 
DOCKED: BRANCH  30  31
DOCKED: ATOM     31  CBA HEM A1501      52.440  82.489   7.148 -0.56 +0.16    +0.102 C 
DOCKED: BRANCH  31  32
DOCKED: ATOM     32  CGA HEM A1501      52.166  83.623   6.200 -0.64 +0.35    +0.186 C 
DOCKED: ATOM     33  O1A HEM A1501      52.841  84.672   6.317 -1.17 -1.69    -0.647 OA
DOCKED: ATOM     34  O2A HEM A1501      51.311  83.455   5.306 -1.06 -1.22    -0.647 OA
DOCKED: ENDBRANCH  31  32
DOCKED: ENDBRANCH  30  31
DOCKED: ENDBRANCH   6  30
DOCKED: BRANCH  22  35
DOCKED: ATOM     35  CAD HEM A1501      54.181  82.951  12.984 -0.39 +0.04    +0.039 C 
DOCKED: BRANCH  35  36
DOCKED: ATOM     36  CBD HEM A1501      52.700  83.251  13.218 -0.52 +0.11    +0.102 C 
DOCKED: BRANCH  36  37
DOCKED: ATOM     37  CGD HEM A1501      52.351  84.711  13.001 -0.46 +0.27    +0.186 C 
DOCKED: ATOM     38  O1D HEM A1501      53.170  85.298  12.261 -0.53 -1.47    -0.647 OA
DOCKED: ATOM     39  O2D HEM A1501      51.274  85.265  13.503 -0.62 -0.95    -0.647 OA
DOCKED: ENDBRANCH  36  37
DOCKED: ENDBRANCH  35  36
DOCKED: ENDBRANCH  22  35
DOCKED: BRANCH  17  40
DOCKED: ATOM     40  CAC HEM A1501      56.079  75.707  15.901 -0.55 +0.00    +0.001 C 
DOCKED: ATOM     41  CBC HEM A1501      55.226  76.071  16.871 -0.64 +0.00    +0.000 C 
DOCKED: ENDBRANCH  17  40
DOCKED: BRANCH  12  42
DOCKED: ATOM     42  CAB HEM A1501      55.335  72.572   8.735 -0.55 +0.00    +0.001 C 
DOCKED: ATOM     43  CBB HEM A1501      54.583  71.646   9.296 -0.53 +0.00    +0.000 C 
DOCKED: ENDBRANCH  12  42
DOCKED: TORSDOF 8
DOCKED: TER
DOCKED: ENDMDL
________________________________________________________________________________


	BEGINNING GENETIC ALGORITHM DOCKING 22 of 100
Run: 22 Seed: 1654803193 1997577463 [ Run 22 of 100 GA/GALS ]
Beginning LAMARCKIAN GENETIC ALGORITHM (LGA), with a maximum of 2500000 energy evaluations.

Final-Value: -23.451


	FINAL GENETIC ALGORITHM DOCKED STATE
	_______________________________________________


Detailed state:  trans 54.893 78.853 10.645 quatxyzw -0.164588 0.976867 -0.136532 0.000122 center 54.495 78.699 10.493 ntor 8 117.2688 -179.7550 -24.0769 -91.7865 20.9286 1.9500 154.1606 166.3274
State:	 54.893  78.853  10.645  -0.165  0.977 -0.137 179.986    117.27 -179.75  -24.08  -91.79   20.93    1.95  154.16  166.33

DOCKED: MODEL       22
DOCKED: USER    Run = 22
DOCKED: USER    DPF = C:/Users/georg/Desktop/fall2024/4-Computational_Biology/Assignment/executables/HEM.dpf
DOCKED: USER  
DOCKED: USER    Estimated Free Energy of Binding    =  -20.56 kcal/mol  [=(1)+(2)+(3)-(4)]
DOCKED: USER    Estimated Inhibition Constant, Ki   =  851.63 aM (attomolar)  [Temperature = 298.15 K]
DOCKED: USER    
DOCKED: USER    (1) Final Intermolecular Energy     =  -22.95 kcal/mol
DOCKED: USER        vdW + Hbond + desolv Energy     =  -18.35 kcal/mol
DOCKED: USER        Electrostatic Energy            =   -4.59 kcal/mol
DOCKED: USER    (2) Final Total Internal Energy     =   -0.51 kcal/mol
DOCKED: USER    (3) Torsional Free Energy           =   +2.39 kcal/mol
DOCKED: USER    (4) Unbound System's Energy  [=(2)] =   -0.51 kcal/mol
DOCKED: USER    
DOCKED: USER    
DOCKED: USER    NEWDPF move HEM.pdbqt
DOCKED: USER    NEWDPF about 54.495000 78.699000 10.493000
DOCKED: USER    NEWDPF tran0 54.892843 78.853260 10.644895
DOCKED: USER    NEWDPF quaternion0 -0.164588 0.976867 -0.136532 0.000122
DOCKED: USER    NEWDPF axisangle0 -0.164588 0.976867 -0.136532 179.985989
DOCKED: USER    NEWDPF quat0 -0.164588 0.976867 -0.136532 179.985989
DOCKED: USER    NEWDPF dihe0 117.27 -179.75 -24.08 -91.79 20.93 1.95 154.16 166.33 
DOCKED: USER  keepresnum = 1 
DOCKED: USER  
DOCKED: REMARK  8 active torsions:
DOCKED: REMARK  status: ('A' for Active; 'I' for Inactive)
DOCKED: REMARK    1  A    between atoms: C2A_3624  and  CAA_3628 
DOCKED: REMARK    2  A    between atoms: CAA_3628  and  CBA_3629 
DOCKED: REMARK    3  A    between atoms: CBA_3629  and  CGA_3630 
DOCKED: REMARK    4  A    between atoms: C3B_3635  and  CAB_3638 
DOCKED: REMARK    5  A    between atoms: C3C_3642  and  CAC_3645 
DOCKED: REMARK    6  A    between atoms: C3D_3649  and  CAD_3652 
DOCKED: REMARK    7  A    between atoms: CAD_3652  and  CBD_3653 
DOCKED: REMARK    8  A    between atoms: CBD_3653  and  CGD_3654 
DOCKED: USER                              x       y       z     vdW  Elec       q    Type
DOCKED: USER                           _______ _______ _______ _____ _____    ______ ____
DOCKED: ROOT
DOCKED: ATOM      1  CHA HEM A1501      54.188  81.103  10.417 -0.27 +0.04    +0.038 A 
DOCKED: ATOM      2  CHB HEM A1501      54.408  77.362   7.401 -0.40 +0.03    +0.038 A 
DOCKED: ATOM      3  CHC HEM A1501      55.335  74.405  11.099 -0.41 +0.01    +0.038 A 
DOCKED: ATOM      4  CHD HEM A1501      55.180  78.162  14.111 -0.39 +0.02    +0.038 A 
DOCKED: ATOM      5  C1A HEM A1501      54.192  80.345   9.251 -0.26 +0.08    +0.079 A 
DOCKED: ATOM      6  C2A HEM A1501      53.996  80.834   7.882 -0.36 -0.01    -0.006 A 
DOCKED: ATOM      7  C3A HEM A1501      54.058  79.784   7.076 -0.37 -0.01    -0.007 A 
DOCKED: ATOM      8  C4A HEM A1501      54.302  78.643   7.905 -0.34 +0.06    +0.079 A 
DOCKED: ATOM      9  CMA HEM A1501      53.927  79.773   5.584 -0.47 +0.03    +0.032 C 
DOCKED: ATOM     10  C1B HEM A1501      54.649  76.216   8.136 -0.37 +0.05    +0.079 A 
DOCKED: ATOM     11  C2B HEM A1501      54.733  74.880   7.558 -0.48 -0.00    -0.003 A 
DOCKED: ATOM     12  C3B HEM A1501      54.979  74.050   8.605 -0.45 +0.01    +0.015 A 
DOCKED: ATOM     13  C4B HEM A1501      55.068  74.880   9.803 -0.37 +0.03    +0.083 A 
DOCKED: ATOM     14  CMB HEM A1501      54.565  74.564   6.097 -0.60 +0.02    +0.033 C 
DOCKED: ATOM     15  C1C HEM A1501      55.417  75.122  12.262 -0.35 +0.03    +0.079 A 
DOCKED: ATOM     16  C2C HEM A1501      55.777  74.586  13.546 -0.43 -0.00    -0.003 A 
DOCKED: ATOM     17  C3C HEM A1501      55.757  75.631  14.413 -0.38 +0.01    +0.015 A 
DOCKED: ATOM     18  C4C HEM A1501      55.368  76.822  13.631 -0.31 +0.03    +0.083 A 
DOCKED: ATOM     19  CMC HEM A1501      56.099  73.125  13.786 -0.54 +0.01    +0.033 C 
DOCKED: ATOM     20  C1D HEM A1501      54.833  79.325  13.380 -0.33 +0.04    +0.079 A 
DOCKED: ATOM     21  C2D HEM A1501      54.671  80.631  13.943 -0.39 -0.00    -0.007 A 
DOCKED: ATOM     22  C3D HEM A1501      54.391  81.463  12.907 -0.34 -0.00    -0.006 A 
DOCKED: ATOM     23  C4D HEM A1501      54.388  80.658  11.700 -0.23 +0.06    +0.079 A 
DOCKED: ATOM     24  CMD HEM A1501      54.790  81.000  15.368 -0.43 +0.01    +0.032 C 
DOCKED: ATOM     25  NA  HEM A1501      54.410  78.992   9.219 -0.18 -0.20    -0.246 N 
DOCKED: ATOM     26  NB  HEM A1501      54.842  76.175   9.496 -0.08 -0.12    -0.246 N 
DOCKED: ATOM     27  NC  HEM A1501      55.206  76.458  12.358 -0.14 -0.10    -0.246 N 
DOCKED: ATOM     28  ND  HEM A1501      54.662  79.367  12.025 -0.11 -0.17    -0.246 N 
DOCKED: ATOM     29 FE   HEM A1501      54.791  77.752  10.796 -0.07 +0.00    +0.000 Fe
DOCKED: ENDROOT
DOCKED: BRANCH   6  30
DOCKED: ATOM     30  CAA HEM A1501      53.771  82.237   7.438 -0.43 +0.06    +0.039 C 
DOCKED: BRANCH  30  31
DOCKED: ATOM     31  CBA HEM A1501      52.338  82.463   6.999 -0.57 +0.16    +0.102 C 
DOCKED: BRANCH  31  32
DOCKED: ATOM     32  CGA HEM A1501      52.131  83.705   6.176 -0.64 +0.35    +0.186 C 
DOCKED: ATOM     33  O1A HEM A1501      51.132  83.758   5.421 -1.01 -1.32    -0.647 OA
DOCKED: ATOM     34  O2A HEM A1501      52.936  84.648   6.313 -1.22 -1.69    -0.647 OA
DOCKED: ENDBRANCH  31  32
DOCKED: ENDBRANCH  30  31
DOCKED: ENDBRANCH   6  30
DOCKED: BRANCH  22  35
DOCKED: ATOM     35  CAD HEM A1501      54.146  82.917  13.053 -0.39 +0.04    +0.039 C 
DOCKED: BRANCH  35  36
DOCKED: ATOM     36  CBD HEM A1501      52.680  83.276  12.813 -0.51 +0.11    +0.102 C 
DOCKED: BRANCH  36  37
DOCKED: ATOM     37  CGD HEM A1501      52.420  84.770  12.862 -0.41 +0.28    +0.186 C 
DOCKED: ATOM     38  O1D HEM A1501      53.194  85.417  12.124 -0.43 -1.58    -0.647 OA
DOCKED: ATOM     39  O2D HEM A1501      51.451  85.299  13.569 -0.57 -0.96    -0.647 OA
DOCKED: ENDBRANCH  36  37
DOCKED: ENDBRANCH  35  36
DOCKED: ENDBRANCH  22  35
DOCKED: BRANCH  17  40
DOCKED: ATOM     40  CAC HEM A1501      56.047  75.627  15.851 -0.55 +0.00    +0.001 C 
DOCKED: ATOM     41  CBC HEM A1501      55.238  76.048  16.836 -0.64 +0.00    +0.000 C 
DOCKED: ENDBRANCH  17  40
DOCKED: BRANCH  12  42
DOCKED: ATOM     42  CAB HEM A1501      55.153  72.581   8.664 -0.56 +0.00    +0.001 C 
DOCKED: ATOM     43  CBB HEM A1501      55.774  71.829   9.551 -0.56 +0.00    +0.000 C 
DOCKED: ENDBRANCH  12  42
DOCKED: TORSDOF 8
DOCKED: TER
DOCKED: ENDMDL
________________________________________________________________________________


	BEGINNING GENETIC ALGORITHM DOCKING 23 of 100
Run: 23 Seed: 953701696 684996960 [ Run 23 of 100 GA/GALS ]
Beginning LAMARCKIAN GENETIC ALGORITHM (LGA), with a maximum of 2500000 energy evaluations.

Final-Value: -23.238


	FINAL GENETIC ALGORITHM DOCKED STATE
	_______________________________________________


Detailed state:  trans 54.350 78.990 10.761 quatxyzw 0.011724 0.000305 0.016614 -0.999793 center 54.495 78.699 10.493 ntor 8 -7.9147 -156.7401 -161.5069 -166.8736 25.9162 12.6694 12.4111 -10.1468
State:	 54.350  78.990  10.761   0.577  0.015  0.817 -2.331     -7.91 -156.74 -161.51 -166.87   25.92   12.67   12.41  -10.15

DOCKED: MODEL       23
DOCKED: USER    Run = 23
DOCKED: USER    DPF = C:/Users/georg/Desktop/fall2024/4-Computational_Biology/Assignment/executables/HEM.dpf
DOCKED: USER  
DOCKED: USER    Estimated Free Energy of Binding    =  -20.42 kcal/mol  [=(1)+(2)+(3)-(4)]
DOCKED: USER    Estimated Inhibition Constant, Ki   =    1.07 fM (femtomolar)  [Temperature = 298.15 K]
DOCKED: USER    
DOCKED: USER    (1) Final Intermolecular Energy     =  -22.81 kcal/mol
DOCKED: USER        vdW + Hbond + desolv Energy     =  -18.47 kcal/mol
DOCKED: USER        Electrostatic Energy            =   -4.34 kcal/mol
DOCKED: USER    (2) Final Total Internal Energy     =   -0.43 kcal/mol
DOCKED: USER    (3) Torsional Free Energy           =   +2.39 kcal/mol
DOCKED: USER    (4) Unbound System's Energy  [=(2)] =   -0.43 kcal/mol
DOCKED: USER    
DOCKED: USER    
DOCKED: USER    NEWDPF move HEM.pdbqt
DOCKED: USER    NEWDPF about 54.495000 78.699000 10.493000
DOCKED: USER    NEWDPF tran0 54.350263 78.990441 10.761024
DOCKED: USER    NEWDPF quaternion0 0.011724 0.000305 0.016614 -0.999793
DOCKED: USER    NEWDPF axisangle0 0.576503 0.014973 0.816958 -2.330575
DOCKED: USER    NEWDPF quat0 0.576503 0.014973 0.816958 -2.330575
DOCKED: USER    NEWDPF dihe0 -7.91 -156.74 -161.51 -166.87 25.92 12.67 12.41 -10.15 
DOCKED: USER  keepresnum = 1 
DOCKED: USER  
DOCKED: REMARK  8 active torsions:
DOCKED: REMARK  status: ('A' for Active; 'I' for Inactive)
DOCKED: REMARK    1  A    between atoms: C2A_3624  and  CAA_3628 
DOCKED: REMARK    2  A    between atoms: CAA_3628  and  CBA_3629 
DOCKED: REMARK    3  A    between atoms: CBA_3629  and  CGA_3630 
DOCKED: REMARK    4  A    between atoms: C3B_3635  and  CAB_3638 
DOCKED: REMARK    5  A    between atoms: C3C_3642  and  CAC_3645 
DOCKED: REMARK    6  A    between atoms: C3D_3649  and  CAD_3652 
DOCKED: REMARK    7  A    between atoms: CAD_3652  and  CBD_3653 
DOCKED: REMARK    8  A    between atoms: CBD_3653  and  CGD_3654 
DOCKED: USER                              x       y       z     vdW  Elec       q    Type
DOCKED: USER                           _______ _______ _______ _____ _____    ______ ____
DOCKED: ROOT
DOCKED: ATOM      1  CHA HEM A1501      54.205  81.328  10.404 -0.28 +0.04    +0.038 A 
DOCKED: ATOM      2  CHB HEM A1501      55.156  78.601  14.251 -0.39 +0.02    +0.038 A 
DOCKED: ATOM      3  CHC HEM A1501      55.526  74.705  11.429 -0.40 +0.01    +0.038 A 
DOCKED: ATOM      4  CHD HEM A1501      54.509  77.424   7.583 -0.39 +0.03    +0.038 A 
DOCKED: ATOM      5  C1A HEM A1501      54.406  80.923  11.720 -0.24 +0.07    +0.079 A 
DOCKED: ATOM      6  C2A HEM A1501      54.345  81.767  12.918 -0.34 -0.00    -0.006 A 
DOCKED: ATOM      7  C3A HEM A1501      54.614  80.992  13.959 -0.39 -0.00    -0.007 A 
DOCKED: ATOM      8  C4A HEM A1501      54.831  79.674  13.444 -0.33 +0.04    +0.079 A 
DOCKED: ATOM      9  CMA HEM A1501      54.661  81.390  15.402 -0.48 +0.01    +0.032 C 
DOCKED: ATOM     10  C1B HEM A1501      55.373  77.302  13.829 -0.33 +0.03    +0.079 A 
DOCKED: ATOM     11  C2B HEM A1501      55.733  76.206  14.720 -0.41 -0.00    -0.003 A 
DOCKED: ATOM     12  C3B HEM A1501      55.852  75.116  13.919 -0.40 +0.01    +0.015 A 
DOCKED: ATOM     13  C4B HEM A1501      55.540  75.543  12.558 -0.33 +0.03    +0.083 A 
DOCKED: ATOM     14  CMB HEM A1501      55.925  76.335  16.207 -0.55 +0.01    +0.033 C 
DOCKED: ATOM     15  C1C HEM A1501      55.259  75.042  10.129 -0.36 +0.03    +0.079 A 
DOCKED: ATOM     16  C2C HEM A1501      55.179  74.120   9.031 -0.46 -0.00    -0.003 A 
DOCKED: ATOM     17  C3C HEM A1501      54.876  74.861   7.934 -0.46 +0.01    +0.015 A 
DOCKED: ATOM     18  C4C HEM A1501      54.780  76.263   8.384 -0.35 +0.05    +0.083 A 
DOCKED: ATOM     19  CMC HEM A1501      55.405  72.628   9.168 -0.52 +0.01    +0.033 C 
DOCKED: ATOM     20  C1D HEM A1501      54.386  78.774   7.993 -0.32 +0.06    +0.079 A 
DOCKED: ATOM     21  C2D HEM A1501      54.107  79.875   7.122 -0.36 -0.01    -0.007 A 
DOCKED: ATOM     22  C3D HEM A1501      54.021  80.977   7.911 -0.36 -0.01    -0.006 A 
DOCKED: ATOM     23  C4D HEM A1501      54.243  80.544   9.277 -0.26 +0.08    +0.079 A 
DOCKED: ATOM     24  CMD HEM A1501      53.941  79.821   5.655 -0.47 +0.03    +0.032 C 
DOCKED: ATOM     25  NA  HEM A1501      54.677  79.633  12.090 -0.14 -0.17    -0.246 N 
DOCKED: ATOM     26  NB  HEM A1501      55.279  76.867  12.529 -0.14 -0.11    -0.246 N 
DOCKED: ATOM     27  NC  HEM A1501      54.991  76.300   9.701 -0.02 -0.12    -0.246 N 
DOCKED: ATOM     28  ND  HEM A1501      54.458  79.202   9.289 -0.18 -0.20    -0.246 N 
DOCKED: ATOM     29 FE   HEM A1501      54.841  77.995  10.881 -0.07 +0.00    +0.000 Fe
DOCKED: ENDROOT
DOCKED: BRANCH   6  30
DOCKED: ATOM     30  CAA HEM A1501      54.038  83.221  12.996 -0.41 +0.04    +0.039 C 
DOCKED: BRANCH  30  31
DOCKED: ATOM     31  CBA HEM A1501      52.696  83.476  13.654 -0.48 +0.10    +0.102 C 
DOCKED: BRANCH  31  32
DOCKED: ATOM     32  CGA HEM A1501      52.084  84.808  13.318 -0.50 +0.26    +0.186 C 
DOCKED: ATOM     33  O1A HEM A1501      52.488  85.407  12.294 -0.46 -1.35    -0.647 OA
DOCKED: ATOM     34  O2A HEM A1501      51.167  85.240  14.046 -0.68 -0.88    -0.647 OA
DOCKED: ENDBRANCH  31  32
DOCKED: ENDBRANCH  30  31
DOCKED: ENDBRANCH   6  30
DOCKED: BRANCH  22  35
DOCKED: ATOM     35  CAD HEM A1501      53.747  82.342   7.403 -0.43 +0.06    +0.039 C 
DOCKED: BRANCH  35  36
DOCKED: ATOM     36  CBD HEM A1501      52.282  82.518   7.003 -0.58 +0.17    +0.102 C 
DOCKED: BRANCH  36  37
DOCKED: ATOM     37  CGD HEM A1501      52.044  83.759   6.162 -0.63 +0.36    +0.186 C 
DOCKED: ATOM     38  O1D HEM A1501      52.922  84.632   6.332 -1.20 -1.69    -0.647 OA
DOCKED: ATOM     39  O2D HEM A1501      51.047  83.862   5.317 -0.95 -1.35    -0.647 OA
DOCKED: ENDBRANCH  36  37
DOCKED: ENDBRANCH  35  36
DOCKED: ENDBRANCH  22  35
DOCKED: BRANCH  17  40
DOCKED: ATOM     40  CAC HEM A1501      54.683  74.405   6.552 -0.60 +0.00    +0.001 C 
DOCKED: ATOM     41  CBC HEM A1501      53.531  74.391   5.864 -0.66 +0.00    +0.000 C 
DOCKED: ENDBRANCH  17  40
DOCKED: BRANCH  12  42
DOCKED: ATOM     42  CAB HEM A1501      56.208  73.712  14.228 -0.57 +0.00    +0.001 C 
DOCKED: ATOM     43  CBB HEM A1501      56.310  72.662  13.438 -0.55 +0.00    +0.000 C 
DOCKED: ENDBRANCH  12  42
DOCKED: TORSDOF 8
DOCKED: TER
DOCKED: ENDMDL
________________________________________________________________________________


	BEGINNING GENETIC ALGORITHM DOCKING 24 of 100
Run: 24 Seed: 1920081992 2075760316 [ Run 24 of 100 GA/GALS ]
Beginning LAMARCKIAN GENETIC ALGORITHM (LGA), with a maximum of 2500000 energy evaluations.

Final-Value: -23.367


	FINAL GENETIC ALGORITHM DOCKED STATE
	_______________________________________________


Detailed state:  trans 54.309 78.825 10.688 quatxyzw -0.006876 0.017068 -0.026555 0.999478 center 54.495 78.699 10.493 ntor 8 -2.2274 -32.8197 -161.2459 -177.9749 14.6197 13.7467 19.5263 -4.6235
State:	 54.309  78.825  10.688  -0.213  0.528 -0.822  3.703     -2.23  -32.82 -161.25 -177.97   14.62   13.75   19.53   -4.62

DOCKED: MODEL       24
DOCKED: USER    Run = 24
DOCKED: USER    DPF = C:/Users/georg/Desktop/fall2024/4-Computational_Biology/Assignment/executables/HEM.dpf
DOCKED: USER  
DOCKED: USER    Estimated Free Energy of Binding    =  -20.44 kcal/mol  [=(1)+(2)+(3)-(4)]
DOCKED: USER    Estimated Inhibition Constant, Ki   =    1.04 fM (femtomolar)  [Temperature = 298.15 K]
DOCKED: USER    
DOCKED: USER    (1) Final Intermolecular Energy     =  -22.83 kcal/mol
DOCKED: USER        vdW + Hbond + desolv Energy     =  -18.74 kcal/mol
DOCKED: USER        Electrostatic Energy            =   -4.09 kcal/mol
DOCKED: USER    (2) Final Total Internal Energy     =   -0.54 kcal/mol
DOCKED: USER    (3) Torsional Free Energy           =   +2.39 kcal/mol
DOCKED: USER    (4) Unbound System's Energy  [=(2)] =   -0.54 kcal/mol
DOCKED: USER    
DOCKED: USER    
DOCKED: USER    NEWDPF move HEM.pdbqt
DOCKED: USER    NEWDPF about 54.495000 78.699000 10.493000
DOCKED: USER    NEWDPF tran0 54.308518 78.824608 10.687675
DOCKED: USER    NEWDPF quaternion0 -0.006876 0.017068 -0.026555 0.999478
DOCKED: USER    NEWDPF axisangle0 -0.212830 0.528289 -0.821957 3.702809
DOCKED: USER    NEWDPF quat0 -0.212830 0.528289 -0.821957 3.702809
DOCKED: USER    NEWDPF dihe0 -2.23 -32.82 -161.25 -177.97 14.62 13.75 19.53 -4.62 
DOCKED: USER  keepresnum = 1 
DOCKED: USER  
DOCKED: REMARK  8 active torsions:
DOCKED: REMARK  status: ('A' for Active; 'I' for Inactive)
DOCKED: REMARK    1  A    between atoms: C2A_3624  and  CAA_3628 
DOCKED: REMARK    2  A    between atoms: CAA_3628  and  CBA_3629 
DOCKED: REMARK    3  A    between atoms: CBA_3629  and  CGA_3630 
DOCKED: REMARK    4  A    between atoms: C3B_3635  and  CAB_3638 
DOCKED: REMARK    5  A    between atoms: C3C_3642  and  CAC_3645 
DOCKED: REMARK    6  A    between atoms: C3D_3649  and  CAD_3652 
DOCKED: REMARK    7  A    between atoms: CAD_3652  and  CBD_3653 
DOCKED: REMARK    8  A    between atoms: CBD_3653  and  CGD_3654 
DOCKED: USER                              x       y       z     vdW  Elec       q    Type
DOCKED: USER                           _______ _______ _______ _____ _____    ______ ____
DOCKED: ROOT
DOCKED: ATOM      1  CHA HEM A1501      54.131  81.156  10.304 -0.28 +0.04    +0.038 A 
DOCKED: ATOM      2  CHB HEM A1501      54.999  78.482  14.207 -0.40 +0.02    +0.038 A 
DOCKED: ATOM      3  CHC HEM A1501      55.543  74.569  11.437 -0.40 +0.01    +0.038 A 
DOCKED: ATOM      4  CHD HEM A1501      54.609  77.234   7.532 -0.38 +0.03    +0.038 A 
DOCKED: ATOM      5  C1A HEM A1501      54.293  80.767  11.629 -0.22 +0.07    +0.079 A 
DOCKED: ATOM      6  C2A HEM A1501      54.174  81.619  12.817 -0.36 -0.00    -0.006 A 
DOCKED: ATOM      7  C3A HEM A1501      54.420  80.859  13.873 -0.41 -0.00    -0.007 A 
DOCKED: ATOM      8  C4A HEM A1501      54.682  79.541  13.380 -0.33 +0.05    +0.079 A 
DOCKED: ATOM      9  CMA HEM A1501      54.409  81.270  15.314 -0.46 +0.01    +0.032 C 
DOCKED: ATOM     10  C1B HEM A1501      55.255  77.184  13.806 -0.33 +0.03    +0.079 A 
DOCKED: ATOM     11  C2B HEM A1501      55.605  76.103  14.719 -0.40 -0.00    -0.003 A 
DOCKED: ATOM     12  C3B HEM A1501      55.772  75.008  13.932 -0.40 +0.01    +0.015 A 
DOCKED: ATOM     13  C4B HEM A1501      55.501  75.417  12.557 -0.33 +0.03    +0.083 A 
DOCKED: ATOM     14  CMB HEM A1501      55.741  76.248  16.210 -0.56 +0.01    +0.033 C 
DOCKED: ATOM     15  C1C HEM A1501      55.315  74.890  10.126 -0.37 +0.03    +0.079 A 
DOCKED: ATOM     16  C2C HEM A1501      55.292  73.956   9.033 -0.46 -0.00    -0.003 A 
DOCKED: ATOM     17  C3C HEM A1501      55.013  74.681   7.920 -0.46 +0.01    +0.015 A 
DOCKED: ATOM     18  C4C HEM A1501      54.874  76.086   8.353 -0.35 +0.05    +0.083 A 
DOCKED: ATOM     19  CMC HEM A1501      55.541  72.470   9.193 -0.52 +0.01    +0.033 C 
DOCKED: ATOM     20  C1D HEM A1501      54.446  78.585   7.925 -0.32 +0.06    +0.079 A 
DOCKED: ATOM     21  C2D HEM A1501      54.176  79.673   7.034 -0.36 -0.01    -0.007 A 
DOCKED: ATOM     22  C3D HEM A1501      54.042  80.779   7.809 -0.36 -0.01    -0.006 A 
DOCKED: ATOM     23  C4D HEM A1501      54.224  80.363   9.186 -0.26 +0.08    +0.079 A 
DOCKED: ATOM     24  CMD HEM A1501      54.064  79.603   5.563 -0.48 +0.03    +0.032 C 
DOCKED: ATOM     25  NA  HEM A1501      54.576  79.485  12.021 -0.11 -0.17    -0.246 N 
DOCKED: ATOM     26  NB  HEM A1501      55.215  76.735  12.507 -0.14 -0.11    -0.246 N 
DOCKED: ATOM     27  NC  HEM A1501      55.038  76.138   9.676 -0.11 -0.12    -0.246 N 
DOCKED: ATOM     28  ND  HEM A1501      54.464  79.025   9.219 -0.18 -0.20    -0.246 N 
DOCKED: ATOM     29 FE   HEM A1501      54.813  77.840  10.834 -0.07 +0.00    +0.000 Fe
DOCKED: ENDROOT
DOCKED: BRANCH   6  30
DOCKED: ATOM     30  CAA HEM A1501      53.836  83.068  12.870 -0.44 +0.04    +0.039 C 
DOCKED: BRANCH  30  31
DOCKED: ATOM     31  CBA HEM A1501      52.548  83.315  13.632 -0.48 +0.10    +0.102 C 
DOCKED: BRANCH  31  32
DOCKED: ATOM     32  CGA HEM A1501      52.017  84.717  13.512 -0.51 +0.25    +0.186 C 
DOCKED: ATOM     33  O1A HEM A1501      52.409  85.421  12.552 -0.51 -1.31    -0.647 OA
DOCKED: ATOM     34  O2A HEM A1501      51.173  85.104  14.345 -0.53 -0.84    -0.647 OA
DOCKED: ENDBRANCH  31  32
DOCKED: ENDBRANCH  30  31
DOCKED: ENDBRANCH   6  30
DOCKED: BRANCH  22  35
DOCKED: ATOM     35  CAD HEM A1501      53.759  82.134   7.279 -0.45 +0.06    +0.039 C 
DOCKED: BRANCH  35  36
DOCKED: ATOM     36  CBD HEM A1501      52.278  82.322   6.952 -0.57 +0.16    +0.102 C 
DOCKED: BRANCH  36  37
DOCKED: ATOM     37  CGD HEM A1501      52.014  83.527   6.070 -0.63 +0.34    +0.186 C 
DOCKED: ATOM     38  O1D HEM A1501      52.789  84.479   6.312 -1.14 -1.58    -0.647 OA
DOCKED: ATOM     39  O2D HEM A1501      51.103  83.532   5.128 -1.15 -1.26    -0.647 OA
DOCKED: ENDBRANCH  36  37
DOCKED: ENDBRANCH  35  36
DOCKED: ENDBRANCH  22  35
DOCKED: BRANCH  17  40
DOCKED: ATOM     40  CAC HEM A1501      54.878  74.210   6.536 -0.60 +0.00    +0.001 C 
DOCKED: ATOM     41  CBC HEM A1501      53.775  74.265   5.773 -0.66 +0.00    +0.000 C 
DOCKED: ENDBRANCH  17  40
DOCKED: BRANCH  12  42
DOCKED: ATOM     42  CAB HEM A1501      56.145  73.615  14.268 -0.58 +0.00    +0.001 C 
DOCKED: ATOM     43  CBB HEM A1501      57.201  73.141  14.899 -0.62 +0.00    +0.000 C 
DOCKED: ENDBRANCH  12  42
DOCKED: TORSDOF 8
DOCKED: TER
DOCKED: ENDMDL
________________________________________________________________________________


	BEGINNING GENETIC ALGORITHM DOCKING 25 of 100
Run: 25 Seed: 1658234072 1343996385 [ Run 25 of 100 GA/GALS ]
Beginning LAMARCKIAN GENETIC ALGORITHM (LGA), with a maximum of 2500000 energy evaluations.

Final-Value: -23.457


	FINAL GENETIC ALGORITHM DOCKED STATE
	_______________________________________________


Detailed state:  trans 54.880 78.904 10.442 quatxyzw 0.183335 -0.968539 0.166614 0.023660 center 54.495 78.699 10.493 ntor 8 176.4841 -88.7958 -44.7073 -149.7129 13.9560 13.5420 169.7646 -141.1717
State:	 54.880  78.904  10.442   0.183 -0.969  0.167 177.288    176.48  -88.80  -44.71 -149.71   13.96   13.54  169.76 -141.17

DOCKED: MODEL       25
DOCKED: USER    Run = 25
DOCKED: USER    DPF = C:/Users/georg/Desktop/fall2024/4-Computational_Biology/Assignment/executables/HEM.dpf
DOCKED: USER  
DOCKED: USER    Estimated Free Energy of Binding    =  -20.58 kcal/mol  [=(1)+(2)+(3)-(4)]
DOCKED: USER    Estimated Inhibition Constant, Ki   =  826.53 aM (attomolar)  [Temperature = 298.15 K]
DOCKED: USER    
DOCKED: USER    (1) Final Intermolecular Energy     =  -22.96 kcal/mol
DOCKED: USER        vdW + Hbond + desolv Energy     =  -18.69 kcal/mol
DOCKED: USER        Electrostatic Energy            =   -4.27 kcal/mol
DOCKED: USER    (2) Final Total Internal Energy     =   -0.49 kcal/mol
DOCKED: USER    (3) Torsional Free Energy           =   +2.39 kcal/mol
DOCKED: USER    (4) Unbound System's Energy  [=(2)] =   -0.49 kcal/mol
DOCKED: USER    
DOCKED: USER    
DOCKED: USER    NEWDPF move HEM.pdbqt
DOCKED: USER    NEWDPF about 54.495000 78.699000 10.493000
DOCKED: USER    NEWDPF tran0 54.879669 78.904331 10.441536
DOCKED: USER    NEWDPF quaternion0 0.183335 -0.968539 0.166614 0.023660
DOCKED: USER    NEWDPF axisangle0 0.183387 -0.968810 0.166660 177.288476
DOCKED: USER    NEWDPF quat0 0.183387 -0.968810 0.166660 177.288476
DOCKED: USER    NEWDPF dihe0 176.48 -88.80 -44.71 -149.71 13.96 13.54 169.76 -141.17 
DOCKED: USER  keepresnum = 1 
DOCKED: USER  
DOCKED: REMARK  8 active torsions:
DOCKED: REMARK  status: ('A' for Active; 'I' for Inactive)
DOCKED: REMARK    1  A    between atoms: C2A_3624  and  CAA_3628 
DOCKED: REMARK    2  A    between atoms: CAA_3628  and  CBA_3629 
DOCKED: REMARK    3  A    between atoms: CBA_3629  and  CGA_3630 
DOCKED: REMARK    4  A    between atoms: C3B_3635  and  CAB_3638 
DOCKED: REMARK    5  A    between atoms: C3C_3642  and  CAC_3645 
DOCKED: REMARK    6  A    between atoms: C3D_3649  and  CAD_3652 
DOCKED: REMARK    7  A    between atoms: CAD_3652  and  CBD_3653 
DOCKED: REMARK    8  A    between atoms: CBD_3653  and  CGD_3654 
DOCKED: USER                              x       y       z     vdW  Elec       q    Type
DOCKED: USER                           _______ _______ _______ _____ _____    ______ ____
DOCKED: ROOT
DOCKED: ATOM      1  CHA HEM A1501      54.088  81.104  10.056 -0.28 +0.04    +0.038 A 
DOCKED: ATOM      2  CHB HEM A1501      54.632  77.225   7.263 -0.39 +0.03    +0.038 A 
DOCKED: ATOM      3  CHC HEM A1501      55.494  74.511  11.159 -0.41 +0.01    +0.038 A 
DOCKED: ATOM      4  CHD HEM A1501      55.015  78.409  13.951 -0.39 +0.02    +0.038 A 
DOCKED: ATOM      5  C1A HEM A1501      54.188  80.286   8.935 -0.28 +0.08    +0.079 A 
DOCKED: ATOM      6  C2A HEM A1501      54.041  80.694   7.534 -0.36 -0.01    -0.006 A 
DOCKED: ATOM      7  C3A HEM A1501      54.193  79.608   6.790 -0.37 -0.01    -0.007 A 
DOCKED: ATOM      8  C4A HEM A1501      54.443  78.525   7.691 -0.33 +0.06    +0.079 A 
DOCKED: ATOM      9  CMA HEM A1501      54.141  79.513   5.296 -0.50 +0.03    +0.032 C 
DOCKED: ATOM     10  C1B HEM A1501      54.886  76.131   8.071 -0.36 +0.04    +0.079 A 
DOCKED: ATOM     11  C2B HEM A1501      55.059  74.773   7.571 -0.48 -0.00    -0.003 A 
DOCKED: ATOM     12  C3B HEM A1501      55.286  74.011   8.672 -0.45 +0.01    +0.015 A 
DOCKED: ATOM     13  C4B HEM A1501      55.275  74.905   9.827 -0.37 +0.03    +0.083 A 
DOCKED: ATOM     14  CMB HEM A1501      54.981  74.374   6.123 -0.59 +0.02    +0.033 C 
DOCKED: ATOM     15  C1C HEM A1501      55.484  75.291  12.283 -0.34 +0.03    +0.079 A 
DOCKED: ATOM     16  C2C HEM A1501      55.799  74.840  13.611 -0.42 -0.00    -0.003 A 
DOCKED: ATOM     17  C3C HEM A1501      55.687  75.927  14.417 -0.38 +0.01    +0.015 A 
DOCKED: ATOM     18  C4C HEM A1501      55.287  77.055  13.554 -0.31 +0.04    +0.083 A 
DOCKED: ATOM     19  CMC HEM A1501      56.173  73.410  13.946 -0.54 +0.01    +0.033 C 
DOCKED: ATOM     20  C1D HEM A1501      54.655  79.514  13.141 -0.31 +0.05    +0.079 A 
DOCKED: ATOM     21  C2D HEM A1501      54.407  80.839  13.623 -0.40 -0.00    -0.007 A 
DOCKED: ATOM     22  C3D HEM A1501      54.144  81.601  12.530 -0.35 -0.01    -0.006 A 
DOCKED: ATOM     23  C4D HEM A1501      54.240  80.736  11.371 -0.20 +0.07    +0.079 A 
DOCKED: ATOM     24  CMD HEM A1501      54.434  81.287  15.030 -0.48 +0.02    +0.032 C 
DOCKED: ATOM     25  NA  HEM A1501      54.466  78.946   8.988 -0.19 -0.20    -0.246 N 
DOCKED: ATOM     26  NB  HEM A1501      55.009  76.170   9.439 -0.15 -0.12    -0.246 N 
DOCKED: ATOM     27  NC  HEM A1501      55.209  76.619  12.296 -0.11 -0.11    -0.246 N 
DOCKED: ATOM     28  ND  HEM A1501      54.555  79.478  11.778 -0.09 -0.18    -0.246 N 
DOCKED: ATOM     29 FE   HEM A1501      54.819  77.809  10.647 -0.07 +0.00    +0.000 Fe
DOCKED: ENDROOT
DOCKED: BRANCH   6  30
DOCKED: ATOM     30  CAA HEM A1501      53.778  82.060   7.003 -0.46 +0.05    +0.039 C 
DOCKED: BRANCH  30  31
DOCKED: ATOM     31  CBA HEM A1501      52.294  82.320   6.837 -0.58 +0.16    +0.102 C 
DOCKED: BRANCH  31  32
DOCKED: ATOM     32  CGA HEM A1501      51.967  83.583   6.088 -0.63 +0.35    +0.186 C 
DOCKED: ATOM     33  O1A HEM A1501      51.063  83.543   5.222 -1.14 -1.29    -0.647 OA
DOCKED: ATOM     34  O2A HEM A1501      52.578  84.628   6.393 -1.05 -1.64    -0.647 OA
DOCKED: ENDBRANCH  31  32
DOCKED: ENDBRANCH  30  31
DOCKED: ENDBRANCH   6  30
DOCKED: BRANCH  22  35
DOCKED: ATOM     35  CAD HEM A1501      53.827  83.048  12.585 -0.44 +0.04    +0.039 C 
DOCKED: BRANCH  35  36
DOCKED: ATOM     36  CBD HEM A1501      52.622  83.335  13.480 -0.51 +0.10    +0.102 C 
DOCKED: BRANCH  36  37
DOCKED: ATOM     37  CGD HEM A1501      52.044  84.722  13.268 -0.50 +0.25    +0.186 C 
DOCKED: ATOM     38  O1D HEM A1501      52.737  85.419  12.495 -0.50 -1.40    -0.647 OA
DOCKED: ATOM     39  O2D HEM A1501      50.913  85.108  13.804 -0.72 -0.86    -0.647 OA
DOCKED: ENDBRANCH  36  37
DOCKED: ENDBRANCH  35  36
DOCKED: ENDBRANCH  22  35
DOCKED: BRANCH  17  40
DOCKED: ATOM     40  CAC HEM A1501      55.902  76.011  15.867 -0.55 +0.00    +0.001 C 
DOCKED: ATOM     41  CBC HEM A1501      55.188  75.395  16.822 -0.61 +0.00    +0.000 C 
DOCKED: ENDBRANCH  17  40
DOCKED: BRANCH  12  42
DOCKED: ATOM     42  CAB HEM A1501      55.522  72.557   8.820 -0.53 +0.00    +0.001 C 
DOCKED: ATOM     43  CBB HEM A1501      54.779  71.623   9.378 -0.55 +0.00    +0.000 C 
DOCKED: ENDBRANCH  12  42
DOCKED: TORSDOF 8
DOCKED: TER
DOCKED: ENDMDL
________________________________________________________________________________


	BEGINNING GENETIC ALGORITHM DOCKING 26 of 100
Run: 26 Seed: 1224782366 284189373 [ Run 26 of 100 GA/GALS ]
Beginning LAMARCKIAN GENETIC ALGORITHM (LGA), with a maximum of 2500000 energy evaluations.

Final-Value: -23.749


	FINAL GENETIC ALGORITHM DOCKED STATE
	_______________________________________________


Detailed state:  trans 54.941 78.970 10.670 quatxyzw -0.177620 0.973928 -0.141115 -0.001094 center 54.495 78.699 10.493 ntor 8 127.6561 -89.3696 172.4067 -117.7548 11.0922 12.2516 147.5727 -173.2103
State:	 54.941  78.970  10.670  -0.178  0.974 -0.141 -179.875    127.66  -89.37  172.41 -117.75   11.09   12.25  147.57 -173.21

DOCKED: MODEL       26
DOCKED: USER    Run = 26
DOCKED: USER    DPF = C:/Users/georg/Desktop/fall2024/4-Computational_Biology/Assignment/executables/HEM.dpf
DOCKED: USER  
DOCKED: USER    Estimated Free Energy of Binding    =  -20.80 kcal/mol  [=(1)+(2)+(3)-(4)]
DOCKED: USER    Estimated Inhibition Constant, Ki   =  568.35 aM (attomolar)  [Temperature = 298.15 K]
DOCKED: USER    
DOCKED: USER    (1) Final Intermolecular Energy     =  -23.18 kcal/mol
DOCKED: USER        vdW + Hbond + desolv Energy     =  -18.66 kcal/mol
DOCKED: USER        Electrostatic Energy            =   -4.53 kcal/mol
DOCKED: USER    (2) Final Total Internal Energy     =   -0.56 kcal/mol
DOCKED: USER    (3) Torsional Free Energy           =   +2.39 kcal/mol
DOCKED: USER    (4) Unbound System's Energy  [=(2)] =   -0.56 kcal/mol
DOCKED: USER    
DOCKED: USER    
DOCKED: USER    NEWDPF move HEM.pdbqt
DOCKED: USER    NEWDPF about 54.495000 78.699000 10.493000
DOCKED: USER    NEWDPF tran0 54.941393 78.970322 10.669690
DOCKED: USER    NEWDPF quaternion0 -0.177620 0.973928 -0.141115 -0.001094
DOCKED: USER    NEWDPF axisangle0 -0.177620 0.973929 -0.141115 -179.874609
DOCKED: USER    NEWDPF quat0 -0.177620 0.973929 -0.141115 -179.874609
DOCKED: USER    NEWDPF dihe0 127.66 -89.37 172.41 -117.75 11.09 12.25 147.57 -173.21 
DOCKED: USER  keepresnum = 1 
DOCKED: USER  
DOCKED: REMARK  8 active torsions:
DOCKED: REMARK  status: ('A' for Active; 'I' for Inactive)
DOCKED: REMARK    1  A    between atoms: C2A_3624  and  CAA_3628 
DOCKED: REMARK    2  A    between atoms: CAA_3628  and  CBA_3629 
DOCKED: REMARK    3  A    between atoms: CBA_3629  and  CGA_3630 
DOCKED: REMARK    4  A    between atoms: C3B_3635  and  CAB_3638 
DOCKED: REMARK    5  A    between atoms: C3C_3642  and  CAC_3645 
DOCKED: REMARK    6  A    between atoms: C3D_3649  and  CAD_3652 
DOCKED: REMARK    7  A    between atoms: CAD_3652  and  CBD_3653 
DOCKED: REMARK    8  A    between atoms: CBD_3653  and  CGD_3654 
DOCKED: USER                              x       y       z     vdW  Elec       q    Type
DOCKED: USER                           _______ _______ _______ _____ _____    ______ ____
DOCKED: ROOT
DOCKED: ATOM      1  CHA HEM A1501      54.177  81.199  10.420 -0.28 +0.04    +0.038 A 
DOCKED: ATOM      2  CHB HEM A1501      54.498  77.436   7.440 -0.39 +0.03    +0.038 A 
DOCKED: ATOM      3  CHC HEM A1501      55.502  74.540  11.166 -0.41 +0.01    +0.038 A 
DOCKED: ATOM      4  CHD HEM A1501      55.246  78.319  14.143 -0.39 +0.02    +0.038 A 
DOCKED: ATOM      5  C1A HEM A1501      54.202  80.429   9.262 -0.26 +0.08    +0.079 A 
DOCKED: ATOM      6  C2A HEM A1501      53.993  80.900   7.889 -0.36 -0.01    -0.006 A 
DOCKED: ATOM      7  C3A HEM A1501      54.084  79.845   7.092 -0.37 -0.01    -0.007 A 
DOCKED: ATOM      8  C4A HEM A1501      54.357  78.719   7.932 -0.33 +0.06    +0.079 A 
DOCKED: ATOM      9  CMA HEM A1501      53.954  79.816   5.600 -0.48 +0.03    +0.032 C 
DOCKED: ATOM     10  C1B HEM A1501      54.770  76.304   8.186 -0.36 +0.05    +0.079 A 
DOCKED: ATOM     11  C2B HEM A1501      54.889  74.966   7.620 -0.48 -0.00    -0.003 A 
DOCKED: ATOM     12  C3B HEM A1501      55.156  74.153   8.675 -0.45 +0.01    +0.015 A 
DOCKED: ATOM     13  C4B HEM A1501      55.223  74.995   9.865 -0.37 +0.03    +0.083 A 
DOCKED: ATOM     14  CMB HEM A1501      54.730  74.632   6.162 -0.60 +0.02    +0.033 C 
DOCKED: ATOM     15  C1C HEM A1501      55.565  75.270  12.322 -0.35 +0.03    +0.079 A 
DOCKED: ATOM     16  C2C HEM A1501      55.938  74.756  13.611 -0.43 -0.00    -0.003 A 
DOCKED: ATOM     17  C3C HEM A1501      55.890  75.808  14.468 -0.40 +0.01    +0.015 A 
DOCKED: ATOM     18  C4C HEM A1501      55.469  76.980  13.675 -0.31 +0.03    +0.083 A 
DOCKED: ATOM     19  CMC HEM A1501      56.299  73.306  13.865 -0.54 +0.01    +0.033 C 
DOCKED: ATOM     20  C1D HEM A1501      54.867  79.465  13.401 -0.32 +0.04    +0.079 A 
DOCKED: ATOM     21  C2D HEM A1501      54.671  80.772  13.951 -0.39 -0.00    -0.007 A 
DOCKED: ATOM     22  C3D HEM A1501      54.369  81.586  12.907 -0.34 -0.00    -0.006 A 
DOCKED: ATOM     23  C4D HEM A1501      54.388  80.771  11.708 -0.23 +0.07    +0.079 A 
DOCKED: ATOM     24  CMD HEM A1501      54.779  81.158  15.372 -0.46 +0.01    +0.032 C 
DOCKED: ATOM     25  NA  HEM A1501      54.455  79.083   9.243 -0.18 -0.20    -0.246 N 
DOCKED: ATOM     26  NB  HEM A1501      54.963  76.281   9.546 -0.07 -0.12    -0.246 N 
DOCKED: ATOM     27  NC  HEM A1501      55.318  76.600  12.405 -0.15 -0.11    -0.246 N 
DOCKED: ATOM     28  ND  HEM A1501      54.697  79.491  12.045 -0.13 -0.17    -0.246 N 
DOCKED: ATOM     29 FE   HEM A1501      54.869  77.868  10.831 -0.07 +0.00    +0.000 Fe
DOCKED: ENDROOT
DOCKED: BRANCH   6  30
DOCKED: ATOM     30  CAA HEM A1501      53.731  82.292   7.431 -0.44 +0.06    +0.039 C 
DOCKED: BRANCH  30  31
DOCKED: ATOM     31  CBA HEM A1501      52.342  82.437   6.841 -0.58 +0.16    +0.102 C 
DOCKED: BRANCH  31  32
DOCKED: ATOM     32  CGA HEM A1501      52.074  83.774   6.207 -0.64 +0.36    +0.186 C 
DOCKED: ATOM     33  O1A HEM A1501      52.940  84.671   6.323 -1.21 -1.71    -0.647 OA
DOCKED: ATOM     34  O2A HEM A1501      51.021  83.920   5.552 -0.99 -1.37    -0.647 OA
DOCKED: ENDBRANCH  31  32
DOCKED: ENDBRANCH  30  31
DOCKED: ENDBRANCH   6  30
DOCKED: BRANCH  22  35
DOCKED: ATOM     35  CAD HEM A1501      54.085  83.035  13.040 -0.40 +0.04    +0.039 C 
DOCKED: BRANCH  35  36
DOCKED: ATOM     36  CBD HEM A1501      52.603  83.305  13.297 -0.52 +0.11    +0.102 C 
DOCKED: BRANCH  36  37
DOCKED: ATOM     37  CGD HEM A1501      52.222  84.760  13.096 -0.48 +0.27    +0.186 C 
DOCKED: ATOM     38  O1D HEM A1501      52.988  85.353  12.306 -0.49 -1.46    -0.647 OA
DOCKED: ATOM     39  O2D HEM A1501      51.171  85.302  13.660 -0.71 -0.93    -0.647 OA
DOCKED: ENDBRANCH  36  37
DOCKED: ENDBRANCH  35  36
DOCKED: ENDBRANCH  22  35
DOCKED: BRANCH  17  40
DOCKED: ATOM     40  CAC HEM A1501      56.179  75.825  15.906 -0.55 +0.00    +0.001 C 
DOCKED: ATOM     41  CBC HEM A1501      55.304  76.047  16.899 -0.65 +0.00    +0.000 C 
DOCKED: ENDBRANCH  17  40
DOCKED: BRANCH  12  42
DOCKED: ATOM     42  CAB HEM A1501      55.370  72.689   8.748 -0.54 +0.00    +0.001 C 
DOCKED: ATOM     43  CBB HEM A1501      54.642  71.746   9.312 -0.55 +0.00    +0.000 C 
DOCKED: ENDBRANCH  12  42
DOCKED: TORSDOF 8
DOCKED: TER
DOCKED: ENDMDL
________________________________________________________________________________


	BEGINNING GENETIC ALGORITHM DOCKING 27 of 100
Run: 27 Seed: 969166127 1606631350 [ Run 27 of 100 GA/GALS ]
Beginning LAMARCKIAN GENETIC ALGORITHM (LGA), with a maximum of 2500000 energy evaluations.

Final-Value: -23.637


	FINAL GENETIC ALGORITHM DOCKED STATE
	_______________________________________________


Detailed state:  trans 54.928 79.072 10.881 quatxyzw 0.188046 -0.969786 0.154286 0.018718 center 54.495 78.699 10.493 ntor 8 179.6194 -68.9945 -22.9953 -113.6832 16.1910 11.8414 146.3566 -165.5234
State:	 54.928  79.072  10.881   0.188 -0.970  0.154 177.855    179.62  -68.99  -23.00 -113.68   16.19   11.84  146.36 -165.52

DOCKED: MODEL       27
DOCKED: USER    Run = 27
DOCKED: USER    DPF = C:/Users/georg/Desktop/fall2024/4-Computational_Biology/Assignment/executables/HEM.dpf
DOCKED: USER  
DOCKED: USER    Estimated Free Energy of Binding    =  -20.72 kcal/mol  [=(1)+(2)+(3)-(4)]
DOCKED: USER    Estimated Inhibition Constant, Ki   =  649.24 aM (attomolar)  [Temperature = 298.15 K]
DOCKED: USER    
DOCKED: USER    (1) Final Intermolecular Energy     =  -23.11 kcal/mol
DOCKED: USER        vdW + Hbond + desolv Energy     =  -18.81 kcal/mol
DOCKED: USER        Electrostatic Energy            =   -4.30 kcal/mol
DOCKED: USER    (2) Final Total Internal Energy     =   -0.53 kcal/mol
DOCKED: USER    (3) Torsional Free Energy           =   +2.39 kcal/mol
DOCKED: USER    (4) Unbound System's Energy  [=(2)] =   -0.53 kcal/mol
DOCKED: USER    
DOCKED: USER    
DOCKED: USER    NEWDPF move HEM.pdbqt
DOCKED: USER    NEWDPF about 54.495000 78.699000 10.493000
DOCKED: USER    NEWDPF tran0 54.927590 79.072014 10.880559
DOCKED: USER    NEWDPF quaternion0 0.188046 -0.969786 0.154286 0.018718
DOCKED: USER    NEWDPF axisangle0 0.188079 -0.969956 0.154313 177.854939
DOCKED: USER    NEWDPF quat0 0.188079 -0.969956 0.154313 177.854939
DOCKED: USER    NEWDPF dihe0 179.62 -68.99 -23.00 -113.68 16.19 11.84 146.36 -165.52 
DOCKED: USER  keepresnum = 1 
DOCKED: USER  
DOCKED: REMARK  8 active torsions:
DOCKED: REMARK  status: ('A' for Active; 'I' for Inactive)
DOCKED: REMARK    1  A    between atoms: C2A_3624  and  CAA_3628 
DOCKED: REMARK    2  A    between atoms: CAA_3628  and  CBA_3629 
DOCKED: REMARK    3  A    between atoms: CBA_3629  and  CGA_3630 
DOCKED: REMARK    4  A    between atoms: C3B_3635  and  CAB_3638 
DOCKED: REMARK    5  A    between atoms: C3C_3642  and  CAC_3645 
DOCKED: REMARK    6  A    between atoms: C3D_3649  and  CAD_3652 
DOCKED: REMARK    7  A    between atoms: CAD_3652  and  CBD_3653 
DOCKED: REMARK    8  A    between atoms: CBD_3653  and  CGD_3654 
DOCKED: USER                              x       y       z     vdW  Elec       q    Type
DOCKED: USER                           _______ _______ _______ _____ _____    ______ ____
DOCKED: ROOT
DOCKED: ATOM      1  CHA HEM A1501      54.114  81.273  10.557 -0.28 +0.04    +0.038 A 
DOCKED: ATOM      2  CHB HEM A1501      54.642  77.462   7.670 -0.37 +0.03    +0.038 A 
DOCKED: ATOM      3  CHC HEM A1501      55.586  74.669  11.490 -0.40 +0.01    +0.038 A 
DOCKED: ATOM      4  CHD HEM A1501      55.123  78.500  14.375 -0.39 +0.01    +0.038 A 
DOCKED: ATOM      5  C1A HEM A1501      54.202  80.482   9.416 -0.25 +0.08    +0.079 A 
DOCKED: ATOM      6  C2A HEM A1501      54.030  80.919   8.027 -0.36 -0.01    -0.006 A 
DOCKED: ATOM      7  C3A HEM A1501      54.178  79.851   7.257 -0.36 -0.01    -0.007 A 
DOCKED: ATOM      8  C4A HEM A1501      54.450  78.750   8.130 -0.31 +0.06    +0.079 A 
DOCKED: ATOM      9  CMA HEM A1501      54.103  79.789   5.762 -0.47 +0.03    +0.032 C 
DOCKED: ATOM     10  C1B HEM A1501      54.917  76.352   8.449 -0.33 +0.04    +0.079 A 
DOCKED: ATOM     11  C2B HEM A1501      55.092  75.007   7.916 -0.46 -0.00    -0.003 A 
DOCKED: ATOM     12  C3B HEM A1501      55.342  74.223   8.997 -0.45 +0.01    +0.015 A 
DOCKED: ATOM     13  C4B HEM A1501      55.343  75.091  10.171 -0.35 +0.03    +0.083 A 
DOCKED: ATOM     14  CMB HEM A1501      54.995  74.640   6.460 -0.58 +0.02    +0.033 C 
DOCKED: ATOM     15  C1C HEM A1501      55.588  75.423  12.632 -0.34 +0.03    +0.079 A 
DOCKED: ATOM     16  C2C HEM A1501      55.927  74.946  13.944 -0.43 -0.00    -0.003 A 
DOCKED: ATOM     17  C3C HEM A1501      55.820  76.013  14.776 -0.40 +0.01    +0.015 A 
DOCKED: ATOM     18  C4C HEM A1501      55.398  77.158  13.944 -0.33 +0.03    +0.083 A 
DOCKED: ATOM     19  CMC HEM A1501      56.317  73.512  14.241 -0.56 +0.01    +0.033 C 
DOCKED: ATOM     20  C1D HEM A1501      54.741  79.620  13.596 -0.34 +0.04    +0.079 A 
DOCKED: ATOM     21  C2D HEM A1501      54.491  80.932  14.111 -0.42 -0.00    -0.007 A 
DOCKED: ATOM     22  C3D HEM A1501      54.205  81.716  13.040 -0.36 -0.00    -0.006 A 
DOCKED: ATOM     23  C4D HEM A1501      54.289  80.878  11.860 -0.25 +0.07    +0.079 A 
DOCKED: ATOM     24  CMD HEM A1501      54.537  81.348  15.527 -0.47 +0.01    +0.032 C 
DOCKED: ATOM     25  NA  HEM A1501      54.491  79.143   9.435 -0.17 -0.20    -0.246 N 
DOCKED: ATOM     26  NB  HEM A1501      55.061  76.362   9.816 +0.01 -0.12    -0.246 N 
DOCKED: ATOM     27  NC  HEM A1501      55.303  76.748  12.678 -0.17 -0.11    -0.246 N 
DOCKED: ATOM     28  ND  HEM A1501      54.619  79.613  12.235 -0.15 -0.17    -0.246 N 
DOCKED: ATOM     29 FE   HEM A1501      54.879  77.972  11.062 -0.07 +0.00    +0.000 Fe
DOCKED: ENDROOT
DOCKED: BRANCH   6  30
DOCKED: ATOM     30  CAA HEM A1501      53.749  82.294   7.531 -0.41 +0.06    +0.039 C 
DOCKED: BRANCH  30  31
DOCKED: ATOM     31  CBA HEM A1501      52.391  82.382   6.862 -0.58 +0.16    +0.102 C 
DOCKED: BRANCH  31  32
DOCKED: ATOM     32  CGA HEM A1501      52.162  83.652   6.089 -0.65 +0.35    +0.186 C 
DOCKED: ATOM     33  O1A HEM A1501      51.290  83.651   5.190 -1.07 -1.24    -0.647 OA
DOCKED: ATOM     34  O2A HEM A1501      52.817  84.665   6.406 -1.14 -1.71    -0.647 OA
DOCKED: ENDBRANCH  31  32
DOCKED: ENDBRANCH  30  31
DOCKED: ENDBRANCH   6  30
DOCKED: BRANCH  22  35
DOCKED: ATOM     35  CAD HEM A1501      53.878  83.159  13.132 -0.43 +0.04    +0.039 C 
DOCKED: BRANCH  35  36
DOCKED: ATOM     36  CBD HEM A1501      52.418  83.390  13.517 -0.49 +0.10    +0.102 C 
DOCKED: BRANCH  36  37
DOCKED: ATOM     37  CGD HEM A1501      51.966  84.821  13.296 -0.50 +0.26    +0.186 C 
DOCKED: ATOM     38  O1D HEM A1501      52.578  85.379  12.359 -0.51 -1.36    -0.647 OA
DOCKED: ATOM     39  O2D HEM A1501      51.002  85.376  13.989 -0.88 -0.90    -0.647 OA
DOCKED: ENDBRANCH  36  37
DOCKED: ENDBRANCH  35  36
DOCKED: ENDBRANCH  22  35
DOCKED: BRANCH  17  40
DOCKED: ATOM     40  CAC HEM A1501      56.057  76.067  16.223 -0.58 +0.00    +0.001 C 
DOCKED: ATOM     41  CBC HEM A1501      55.400  75.380  17.171 -0.66 +0.00    +0.000 C 
DOCKED: ENDBRANCH  17  40
DOCKED: BRANCH  12  42
DOCKED: ATOM     42  CAB HEM A1501      55.591  72.767   9.108 -0.51 +0.00    +0.001 C 
DOCKED: ATOM     43  CBB HEM A1501      54.757  71.772   9.332 -0.57 +0.00    +0.000 C 
DOCKED: ENDBRANCH  12  42
DOCKED: TORSDOF 8
DOCKED: TER
DOCKED: ENDMDL
________________________________________________________________________________


	BEGINNING GENETIC ALGORITHM DOCKING 28 of 100
Run: 28 Seed: 754630638 1311138746 [ Run 28 of 100 GA/GALS ]
Beginning LAMARCKIAN GENETIC ALGORITHM (LGA), with a maximum of 2500000 energy evaluations.

Final-Value: -23.308


	FINAL GENETIC ALGORITHM DOCKED STATE
	_______________________________________________


Detailed state:  trans 54.919 78.943 10.882 quatxyzw -0.184792 0.975573 -0.118750 0.002912 center 54.495 78.699 10.493 ntor 8 117.9406 -92.0463 -23.1561 -86.6702 31.4566 8.6097 141.0252 142.9902
State:	 54.919  78.943  10.882  -0.185  0.976 -0.119 179.666    117.94  -92.05  -23.16  -86.67   31.46    8.61  141.03  142.99

DOCKED: MODEL       28
DOCKED: USER    Run = 28
DOCKED: USER    DPF = C:/Users/georg/Desktop/fall2024/4-Computational_Biology/Assignment/executables/HEM.dpf
DOCKED: USER  
DOCKED: USER    Estimated Free Energy of Binding    =  -20.36 kcal/mol  [=(1)+(2)+(3)-(4)]
DOCKED: USER    Estimated Inhibition Constant, Ki   =    1.19 fM (femtomolar)  [Temperature = 298.15 K]
DOCKED: USER    
DOCKED: USER    (1) Final Intermolecular Energy     =  -22.75 kcal/mol
DOCKED: USER        vdW + Hbond + desolv Energy     =  -18.15 kcal/mol
DOCKED: USER        Electrostatic Energy            =   -4.60 kcal/mol
DOCKED: USER    (2) Final Total Internal Energy     =   -0.56 kcal/mol
DOCKED: USER    (3) Torsional Free Energy           =   +2.39 kcal/mol
DOCKED: USER    (4) Unbound System's Energy  [=(2)] =   -0.56 kcal/mol
DOCKED: USER    
DOCKED: USER    
DOCKED: USER    NEWDPF move HEM.pdbqt
DOCKED: USER    NEWDPF about 54.495000 78.699000 10.493000
DOCKED: USER    NEWDPF tran0 54.918627 78.942743 10.882120
DOCKED: USER    NEWDPF quaternion0 -0.184792 0.975573 -0.118750 0.002912
DOCKED: USER    NEWDPF axisangle0 -0.184793 0.975577 -0.118750 179.666267
DOCKED: USER    NEWDPF quat0 -0.184793 0.975577 -0.118750 179.666267
DOCKED: USER    NEWDPF dihe0 117.94 -92.05 -23.16 -86.67 31.46 8.61 141.03 142.99 
DOCKED: USER  keepresnum = 1 
DOCKED: USER  
DOCKED: REMARK  8 active torsions:
DOCKED: REMARK  status: ('A' for Active; 'I' for Inactive)
DOCKED: REMARK    1  A    between atoms: C2A_3624  and  CAA_3628 
DOCKED: REMARK    2  A    between atoms: CAA_3628  and  CBA_3629 
DOCKED: REMARK    3  A    between atoms: CBA_3629  and  CGA_3630 
DOCKED: REMARK    4  A    between atoms: C3B_3635  and  CAB_3638 
DOCKED: REMARK    5  A    between atoms: C3C_3642  and  CAC_3645 
DOCKED: REMARK    6  A    between atoms: C3D_3649  and  CAD_3652 
DOCKED: REMARK    7  A    between atoms: CAD_3652  and  CBD_3653 
DOCKED: REMARK    8  A    between atoms: CBD_3653  and  CGD_3654 
DOCKED: USER                              x       y       z     vdW  Elec       q    Type
DOCKED: USER                           _______ _______ _______ _____ _____    ______ ____
DOCKED: ROOT
DOCKED: ATOM      1  CHA HEM A1501      54.123  81.170  10.741 -0.27 +0.04    +0.038 A 
DOCKED: ATOM      2  CHB HEM A1501      54.435  77.541   7.598 -0.40 +0.03    +0.038 A 
DOCKED: ATOM      3  CHC HEM A1501      55.541  74.502  11.179 -0.41 +0.01    +0.038 A 
DOCKED: ATOM      4  CHD HEM A1501      55.293  78.149  14.318 -0.39 +0.01    +0.038 A 
DOCKED: ATOM      5  C1A HEM A1501      54.137  80.451   9.551 -0.24 +0.08    +0.079 A 
DOCKED: ATOM      6  C2A HEM A1501      53.897  80.977   8.203 -0.37 -0.01    -0.006 A 
DOCKED: ATOM      7  C3A HEM A1501      53.986  79.958   7.361 -0.37 -0.01    -0.007 A 
DOCKED: ATOM      8  C4A HEM A1501      54.288  78.800   8.147 -0.33 +0.07    +0.079 A 
DOCKED: ATOM      9  CMA HEM A1501      53.830  79.991   5.871 -0.46 +0.03    +0.032 C 
DOCKED: ATOM     10  C1B HEM A1501      54.734  76.382   8.290 -0.35 +0.05    +0.079 A 
DOCKED: ATOM     11  C2B HEM A1501      54.859  75.071   7.665 -0.47 -0.00    -0.003 A 
DOCKED: ATOM     12  C3B HEM A1501      55.155  74.217   8.680 -0.45 +0.01    +0.015 A 
DOCKED: ATOM     13  C4B HEM A1501      55.233  75.009   9.904 -0.36 +0.03    +0.083 A 
DOCKED: ATOM     14  CMB HEM A1501      54.678  74.797   6.198 -0.60 +0.02    +0.033 C 
DOCKED: ATOM     15  C1C HEM A1501      55.616  75.183  12.364 -0.35 +0.03    +0.079 A 
DOCKED: ATOM     16  C2C HEM A1501      56.018  74.620  13.623 -0.43 -0.00    -0.003 A 
DOCKED: ATOM     17  C3C HEM A1501      55.973  75.634  14.524 -0.41 +0.01    +0.015 A 
DOCKED: ATOM     18  C4C HEM A1501      55.524  76.834  13.790 -0.32 +0.03    +0.083 A 
DOCKED: ATOM     19  CMC HEM A1501      56.401  73.166  13.808 -0.52 +0.01    +0.033 C 
DOCKED: ATOM     20  C1D HEM A1501      54.888  79.320  13.633 -0.34 +0.04    +0.079 A 
DOCKED: ATOM     21  C2D HEM A1501      54.686  80.600  14.241 -0.41 -0.00    -0.007 A 
DOCKED: ATOM     22  C3D HEM A1501      54.355  81.454  13.239 -0.36 -0.00    -0.006 A 
DOCKED: ATOM     23  C4D HEM A1501      54.362  80.691  12.006 -0.24 +0.06    +0.079 A 
DOCKED: ATOM     24  CMD HEM A1501      54.815  80.926  15.676 -0.31 +0.01    +0.032 C 
DOCKED: ATOM     25  NA  HEM A1501      54.405  79.110   9.470 -0.16 -0.20    -0.246 N 
DOCKED: ATOM     26  NB  HEM A1501      54.952  76.304   9.645 -0.02 -0.12    -0.246 N 
DOCKED: ATOM     27  NC  HEM A1501      55.355  76.506  12.508 -0.17 -0.10    -0.246 N 
DOCKED: ATOM     28  ND  HEM A1501      54.693  79.401  12.282 -0.14 -0.16    -0.246 N 
DOCKED: ATOM     29 FE   HEM A1501      54.862  77.834  10.997 -0.07 +0.00    +0.000 Fe
DOCKED: ENDROOT
DOCKED: BRANCH   6  30
DOCKED: ATOM     30  CAA HEM A1501      53.611  82.384   7.809 -0.34 +0.06    +0.039 C 
DOCKED: BRANCH  30  31
DOCKED: ATOM     31  CBA HEM A1501      52.273  82.508   7.106 -0.57 +0.17    +0.102 C 
DOCKED: BRANCH  31  32
DOCKED: ATOM     32  CGA HEM A1501      52.186  83.658   6.140 -0.65 +0.35    +0.186 C 
DOCKED: ATOM     33  O1A HEM A1501      51.325  83.607   5.231 -1.08 -1.23    -0.647 OA
DOCKED: ATOM     34  O2A HEM A1501      52.942  84.636   6.313 -1.21 -1.69    -0.647 OA
DOCKED: ENDBRANCH  31  32
DOCKED: ENDBRANCH  30  31
DOCKED: ENDBRANCH   6  30
DOCKED: BRANCH  22  35
DOCKED: ATOM     35  CAD HEM A1501      54.056  82.892  13.438 -0.41 +0.03    +0.039 C 
DOCKED: BRANCH  35  36
DOCKED: ATOM     36  CBD HEM A1501      52.780  83.316  12.712 -0.50 +0.12    +0.102 C 
DOCKED: BRANCH  36  37
DOCKED: ATOM     37  CGD HEM A1501      52.587  84.821  12.683 -0.34 +0.30    +0.186 C 
DOCKED: ATOM     38  O1D HEM A1501      53.556  85.420  12.167 -0.44 -1.62    -0.647 OA
DOCKED: ATOM     39  O2D HEM A1501      51.495  85.404  13.110 -0.56 -1.05    -0.647 OA
DOCKED: ENDBRANCH  36  37
DOCKED: ENDBRANCH  35  36
DOCKED: ENDBRANCH  22  35
DOCKED: BRANCH  17  40
DOCKED: ATOM     40  CAC HEM A1501      56.288  75.594  15.957 -0.56 +0.00    +0.001 C 
DOCKED: ATOM     41  CBC HEM A1501      55.476  75.938  16.969 -0.66 +0.00    +0.000 C 
DOCKED: ENDBRANCH  17  40
DOCKED: BRANCH  12  42
DOCKED: ATOM     42  CAB HEM A1501      55.388  72.755   8.687 -0.53 +0.00    +0.001 C 
DOCKED: ATOM     43  CBB HEM A1501      54.707  71.784   9.262 -0.57 +0.00    +0.000 C 
DOCKED: ENDBRANCH  12  42
DOCKED: TORSDOF 8
DOCKED: TER
DOCKED: ENDMDL
________________________________________________________________________________


	BEGINNING GENETIC ALGORITHM DOCKING 29 of 100
Run: 29 Seed: 171833010 469700703 [ Run 29 of 100 GA/GALS ]
Beginning LAMARCKIAN GENETIC ALGORITHM (LGA), with a maximum of 2500000 energy evaluations.

Final-Value: -23.747


	FINAL GENETIC ALGORITHM DOCKED STATE
	_______________________________________________


Detailed state:  trans 54.940 79.014 10.711 quatxyzw 0.181608 -0.971464 0.152033 0.012763 center 54.495 78.699 10.493 ntor 8 154.5902 -85.8995 173.6862 -116.5234 6.6799 9.3095 146.0669 -168.3960
State:	 54.940  79.014  10.711   0.182 -0.972  0.152 178.537    154.59  -85.90  173.69 -116.52    6.68    9.31  146.07 -168.40

DOCKED: MODEL       29
DOCKED: USER    Run = 29
DOCKED: USER    DPF = C:/Users/georg/Desktop/fall2024/4-Computational_Biology/Assignment/executables/HEM.dpf
DOCKED: USER  
DOCKED: USER    Estimated Free Energy of Binding    =  -20.82 kcal/mol  [=(1)+(2)+(3)-(4)]
DOCKED: USER    Estimated Inhibition Constant, Ki   =  545.99 aM (attomolar)  [Temperature = 298.15 K]
DOCKED: USER    
DOCKED: USER    (1) Final Intermolecular Energy     =  -23.21 kcal/mol
DOCKED: USER        vdW + Hbond + desolv Energy     =  -18.71 kcal/mol
DOCKED: USER        Electrostatic Energy            =   -4.49 kcal/mol
DOCKED: USER    (2) Final Total Internal Energy     =   -0.54 kcal/mol
DOCKED: USER    (3) Torsional Free Energy           =   +2.39 kcal/mol
DOCKED: USER    (4) Unbound System's Energy  [=(2)] =   -0.54 kcal/mol
DOCKED: USER    
DOCKED: USER    
DOCKED: USER    NEWDPF move HEM.pdbqt
DOCKED: USER    NEWDPF about 54.495000 78.699000 10.493000
DOCKED: USER    NEWDPF tran0 54.940075 79.013708 10.711083
DOCKED: USER    NEWDPF quaternion0 0.181608 -0.971464 0.152033 0.012763
DOCKED: USER    NEWDPF axisangle0 0.181623 -0.971543 0.152045 178.537397
DOCKED: USER    NEWDPF quat0 0.181623 -0.971543 0.152045 178.537397
DOCKED: USER    NEWDPF dihe0 154.59 -85.90 173.69 -116.52 6.68 9.31 146.07 -168.40 
DOCKED: USER  keepresnum = 1 
DOCKED: USER  
DOCKED: REMARK  8 active torsions:
DOCKED: REMARK  status: ('A' for Active; 'I' for Inactive)
DOCKED: REMARK    1  A    between atoms: C2A_3624  and  CAA_3628 
DOCKED: REMARK    2  A    between atoms: CAA_3628  and  CBA_3629 
DOCKED: REMARK    3  A    between atoms: CBA_3629  and  CGA_3630 
DOCKED: REMARK    4  A    between atoms: C3B_3635  and  CAB_3638 
DOCKED: REMARK    5  A    between atoms: C3C_3642  and  CAC_3645 
DOCKED: REMARK    6  A    between atoms: C3D_3649  and  CAD_3652 
DOCKED: REMARK    7  A    between atoms: CAD_3652  and  CBD_3653 
DOCKED: REMARK    8  A    between atoms: CBD_3653  and  CGD_3654 
DOCKED: USER                              x       y       z     vdW  Elec       q    Type
DOCKED: USER                           _______ _______ _______ _____ _____    ______ ____
DOCKED: ROOT
DOCKED: ATOM      1  CHA HEM A1501      54.156  81.228  10.402 -0.28 +0.04    +0.038 A 
DOCKED: ATOM      2  CHB HEM A1501      54.597  77.417   7.499 -0.38 +0.03    +0.038 A 
DOCKED: ATOM      3  CHC HEM A1501      55.539  74.600  11.301 -0.40 +0.01    +0.038 A 
DOCKED: ATOM      4  CHD HEM A1501      55.163  78.428  14.202 -0.39 +0.02    +0.038 A 
DOCKED: ATOM      5  C1A HEM A1501      54.220  80.438   9.259 -0.26 +0.08    +0.079 A 
DOCKED: ATOM      6  C2A HEM A1501      54.040  80.883   7.873 -0.36 -0.01    -0.006 A 
DOCKED: ATOM      7  C3A HEM A1501      54.164  79.815   7.098 -0.36 -0.01    -0.007 A 
DOCKED: ATOM      8  C4A HEM A1501      54.429  78.707   7.965 -0.32 +0.06    +0.079 A 
DOCKED: ATOM      9  CMA HEM A1501      54.073  79.758   5.603 -0.48 +0.03    +0.032 C 
DOCKED: ATOM     10  C1B HEM A1501      54.863  76.302   8.272 -0.35 +0.04    +0.079 A 
DOCKED: ATOM     11  C2B HEM A1501      55.013  74.955   7.733 -0.47 -0.00    -0.003 A 
DOCKED: ATOM     12  C3B HEM A1501      55.262  74.165   8.809 -0.45 +0.01    +0.015 A 
DOCKED: ATOM     13  C4B HEM A1501      55.289  75.029   9.986 -0.36 +0.03    +0.083 A 
DOCKED: ATOM     14  CMB HEM A1501      54.895  74.594   6.278 -0.59 +0.02    +0.033 C 
DOCKED: ATOM     15  C1C HEM A1501      55.564  75.351  12.445 -0.34 +0.03    +0.079 A 
DOCKED: ATOM     16  C2C HEM A1501      55.910  74.864  13.752 -0.43 -0.00    -0.003 A 
DOCKED: ATOM     17  C3C HEM A1501      55.828  75.931  14.588 -0.40 +0.01    +0.015 A 
DOCKED: ATOM     18  C4C HEM A1501      55.414  77.084  13.764 -0.32 +0.03    +0.083 A 
DOCKED: ATOM     19  CMC HEM A1501      56.281  73.424  14.041 -0.55 +0.01    +0.033 C 
DOCKED: ATOM     20  C1D HEM A1501      54.790  79.556  13.430 -0.33 +0.04    +0.079 A 
DOCKED: ATOM     21  C2D HEM A1501      54.565  80.870  13.951 -0.40 -0.00    -0.007 A 
DOCKED: ATOM     22  C3D HEM A1501      54.280  81.662  12.886 -0.35 -0.00    -0.006 A 
DOCKED: ATOM     23  C4D HEM A1501      54.339  80.826  11.702 -0.24 +0.07    +0.079 A 
DOCKED: ATOM     24  CMD HEM A1501      54.632  81.282  15.368 -0.48 +0.01    +0.032 C 
DOCKED: ATOM     25  NA  HEM A1501      54.489  79.095   9.270 -0.18 -0.20    -0.246 N 
DOCKED: ATOM     26  NB  HEM A1501      55.022  76.305   9.637 -0.07 -0.12    -0.246 N 
DOCKED: ATOM     27  NC  HEM A1501      55.300  76.679  12.498 -0.15 -0.11    -0.246 N 
DOCKED: ATOM     28  ND  HEM A1501      54.654  79.555  12.070 -0.13 -0.17    -0.246 N 
DOCKED: ATOM     29 FE   HEM A1501      54.877  77.914  10.890 -0.07 +0.00    +0.000 Fe
DOCKED: ENDROOT
DOCKED: BRANCH   6  30
DOCKED: ATOM     30  CAA HEM A1501      53.774  82.263   7.383 -0.44 +0.06    +0.039 C 
DOCKED: BRANCH  30  31
DOCKED: ATOM     31  CBA HEM A1501      52.414  82.371   6.723 -0.58 +0.16    +0.102 C 
DOCKED: BRANCH  31  32
DOCKED: ATOM     32  CGA HEM A1501      52.110  83.728   6.149 -0.64 +0.36    +0.186 C 
DOCKED: ATOM     33  O1A HEM A1501      52.931  84.653   6.344 -1.21 -1.71    -0.647 OA
DOCKED: ATOM     34  O2A HEM A1501      51.075  83.864   5.464 -0.98 -1.35    -0.647 OA
DOCKED: ENDBRANCH  31  32
DOCKED: ENDBRANCH  30  31
DOCKED: ENDBRANCH   6  30
DOCKED: BRANCH  22  35
DOCKED: ATOM     35  CAD HEM A1501      53.975  83.109  12.985 -0.42 +0.04    +0.039 C 
DOCKED: BRANCH  35  36
DOCKED: ATOM     36  CBD HEM A1501      52.505  83.362  13.317 -0.52 +0.11    +0.102 C 
DOCKED: BRANCH  36  37
DOCKED: ATOM     37  CGD HEM A1501      52.103  84.816  13.157 -0.48 +0.27    +0.186 C 
DOCKED: ATOM     38  O1D HEM A1501      52.810  85.421  12.322 -0.46 -1.45    -0.647 OA
DOCKED: ATOM     39  O2D HEM A1501      51.090  85.346  13.796 -0.81 -0.92    -0.647 OA
DOCKED: ENDBRANCH  36  37
DOCKED: ENDBRANCH  35  36
DOCKED: ENDBRANCH  22  35
DOCKED: BRANCH  17  40
DOCKED: ATOM     40  CAC HEM A1501      56.080  75.977  16.033 -0.56 +0.00    +0.001 C 
DOCKED: ATOM     41  CBC HEM A1501      55.202  75.705  17.011 -0.65 +0.00    +0.000 C 
DOCKED: ENDBRANCH  17  40
DOCKED: BRANCH  12  42
DOCKED: ATOM     42  CAB HEM A1501      55.491  72.705   8.914 -0.53 +0.00    +0.001 C 
DOCKED: ATOM     43  CBB HEM A1501      54.732  71.755   9.423 -0.54 +0.00    +0.000 C 
DOCKED: ENDBRANCH  12  42
DOCKED: TORSDOF 8
DOCKED: TER
DOCKED: ENDMDL
________________________________________________________________________________


	BEGINNING GENETIC ALGORITHM DOCKING 30 of 100
Run: 30 Seed: 686261000 969955998 [ Run 30 of 100 GA/GALS ]
Beginning LAMARCKIAN GENETIC ALGORITHM (LGA), with a maximum of 2500000 energy evaluations.

Final-Value: -23.265


	FINAL GENETIC ALGORITHM DOCKED STATE
	_______________________________________________


Detailed state:  trans 54.932 78.760 10.118 quatxyzw 0.175517 -0.966081 0.186970 0.030405 center 54.495 78.699 10.493 ntor 8 -149.1778 -94.0488 111.0912 -157.5112 16.5388 -16.0617 -156.5373 -149.9559
State:	 54.932  78.760  10.118   0.176 -0.967  0.187 176.515   -149.18  -94.05  111.09 -157.51   16.54  -16.06 -156.54 -149.96

DOCKED: MODEL       30
DOCKED: USER    Run = 30
DOCKED: USER    DPF = C:/Users/georg/Desktop/fall2024/4-Computational_Biology/Assignment/executables/HEM.dpf
DOCKED: USER  
DOCKED: USER    Estimated Free Energy of Binding    =  -20.34 kcal/mol  [=(1)+(2)+(3)-(4)]
DOCKED: USER    Estimated Inhibition Constant, Ki   =    1.22 fM (femtomolar)  [Temperature = 298.15 K]
DOCKED: USER    
DOCKED: USER    (1) Final Intermolecular Energy     =  -22.73 kcal/mol
DOCKED: USER        vdW + Hbond + desolv Energy     =  -18.40 kcal/mol
DOCKED: USER        Electrostatic Energy            =   -4.33 kcal/mol
DOCKED: USER    (2) Final Total Internal Energy     =   -0.53 kcal/mol
DOCKED: USER    (3) Torsional Free Energy           =   +2.39 kcal/mol
DOCKED: USER    (4) Unbound System's Energy  [=(2)] =   -0.53 kcal/mol
DOCKED: USER    
DOCKED: USER    
DOCKED: USER    NEWDPF move HEM.pdbqt
DOCKED: USER    NEWDPF about 54.495000 78.699000 10.493000
DOCKED: USER    NEWDPF tran0 54.931931 78.760423 10.117950
DOCKED: USER    NEWDPF quaternion0 0.175517 -0.966081 0.186970 0.030405
DOCKED: USER    NEWDPF axisangle0 0.175598 -0.966527 0.187056 176.515350
DOCKED: USER    NEWDPF quat0 0.175598 -0.966527 0.187056 176.515350
DOCKED: USER    NEWDPF dihe0 -149.18 -94.05 111.09 -157.51 16.54 -16.06 -156.54 -149.96 
DOCKED: USER  keepresnum = 1 
DOCKED: USER  
DOCKED: REMARK  8 active torsions:
DOCKED: REMARK  status: ('A' for Active; 'I' for Inactive)
DOCKED: REMARK    1  A    between atoms: C2A_3624  and  CAA_3628 
DOCKED: REMARK    2  A    between atoms: CAA_3628  and  CBA_3629 
DOCKED: REMARK    3  A    between atoms: CBA_3629  and  CGA_3630 
DOCKED: REMARK    4  A    between atoms: C3B_3635  and  CAB_3638 
DOCKED: REMARK    5  A    between atoms: C3C_3642  and  CAC_3645 
DOCKED: REMARK    6  A    between atoms: C3D_3649  and  CAD_3652 
DOCKED: REMARK    7  A    between atoms: CAD_3652  and  CBD_3653 
DOCKED: REMARK    8  A    between atoms: CBD_3653  and  CGD_3654 
DOCKED: USER                              x       y       z     vdW  Elec       q    Type
DOCKED: USER                           _______ _______ _______ _____ _____    ______ ____
DOCKED: ROOT
DOCKED: ATOM      1  CHA HEM A1501      54.179  80.954   9.633 -0.30 +0.04    +0.038 A 
DOCKED: ATOM      2  CHB HEM A1501      54.735  76.966   7.000 -0.40 +0.02    +0.038 A 
DOCKED: ATOM      3  CHC HEM A1501      55.471  74.390  11.012 -0.41 +0.01    +0.038 A 
DOCKED: ATOM      4  CHD HEM A1501      54.980  78.395  13.645 -0.37 +0.02    +0.038 A 
DOCKED: ATOM      5  C1A HEM A1501      54.293  80.094   8.545 -0.28 +0.08    +0.079 A 
DOCKED: ATOM      6  C2A HEM A1501      54.185  80.450   7.127 -0.35 -0.01    -0.006 A 
DOCKED: ATOM      7  C3A HEM A1501      54.338  79.335   6.428 -0.39 -0.01    -0.007 A 
DOCKED: ATOM      8  C4A HEM A1501      54.553  78.283   7.374 -0.33 +0.06    +0.079 A 
DOCKED: ATOM      9  CMA HEM A1501      54.320  79.185   4.937 -0.52 +0.02    +0.032 C 
DOCKED: ATOM     10  C1B HEM A1501      54.955  75.900   7.853 -0.37 +0.04    +0.079 A 
DOCKED: ATOM     11  C2B HEM A1501      55.122  74.522   7.408 -0.49 -0.00    -0.003 A 
DOCKED: ATOM     12  C3B HEM A1501      55.313  73.800   8.542 -0.45 +0.01    +0.015 A 
DOCKED: ATOM     13  C4B HEM A1501      55.288  74.736   9.662 -0.38 +0.03    +0.083 A 
DOCKED: ATOM     14  CMB HEM A1501      55.072  74.070   5.974 -0.58 +0.02    +0.033 C 
DOCKED: ATOM     15  C1C HEM A1501      55.445  75.211  12.107 -0.34 +0.03    +0.079 A 
DOCKED: ATOM     16  C2C HEM A1501      55.724  74.807  13.457 -0.42 -0.00    -0.003 A 
DOCKED: ATOM     17  C3C HEM A1501      55.608  75.925  14.220 -0.38 +0.01    +0.015 A 
DOCKED: ATOM     18  C4C HEM A1501      55.243  77.025  13.306 -0.29 +0.04    +0.083 A 
DOCKED: ATOM     19  CMC HEM A1501      56.071  73.386  13.854 -0.53 +0.01    +0.033 C 
DOCKED: ATOM     20  C1D HEM A1501      54.654  79.474  12.787 -0.25 +0.05    +0.079 A 
DOCKED: ATOM     21  C2D HEM A1501      54.412  80.819  13.213 -0.37 -0.00    -0.007 A 
DOCKED: ATOM     22  C3D HEM A1501      54.185  81.543  12.087 -0.33 -0.01    -0.006 A 
DOCKED: ATOM     23  C4D HEM A1501      54.296  80.634  10.963 -0.19 +0.07    +0.079 A 
DOCKED: ATOM     24  CMD HEM A1501      54.413  81.319  14.602 -0.47 +0.02    +0.032 C 
DOCKED: ATOM     25  NA  HEM A1501      54.552  78.753   8.654 -0.20 -0.19    -0.246 N 
DOCKED: ATOM     26  NB  HEM A1501      55.047  75.989   9.221 -0.22 -0.12    -0.246 N 
DOCKED: ATOM     27  NC  HEM A1501      55.188  76.542  12.063 -0.04 -0.11    -0.246 N 
DOCKED: ATOM     28  ND  HEM A1501      54.584  79.388  11.424 -0.06 -0.18    -0.246 N 
DOCKED: ATOM     29 FE   HEM A1501      54.852  77.674  10.362 -0.07 +0.00    +0.000 Fe
DOCKED: ENDROOT
DOCKED: BRANCH   6  30
DOCKED: ATOM     30  CAA HEM A1501      53.952  81.798   6.539 -0.44 +0.05    +0.039 C 
DOCKED: BRANCH  30  31
DOCKED: ATOM     31  CBA HEM A1501      52.663  82.416   7.045 -0.55 +0.16    +0.102 C 
DOCKED: BRANCH  31  32
DOCKED: ATOM     32  CGA HEM A1501      52.216  83.631   6.279 -0.64 +0.35    +0.186 C 
DOCKED: ATOM     33  O1A HEM A1501      52.907  84.672   6.361 -1.19 -1.72    -0.647 OA
DOCKED: ATOM     34  O2A HEM A1501      51.202  83.537   5.558 -1.01 -1.30    -0.647 OA
DOCKED: ENDBRANCH  31  32
DOCKED: ENDBRANCH  30  31
DOCKED: ENDBRANCH   6  30
DOCKED: BRANCH  22  35
DOCKED: ATOM     35  CAD HEM A1501      53.886  82.994  12.080 -0.40 +0.05    +0.039 C 
DOCKED: BRANCH  35  36
DOCKED: ATOM     36  CBD HEM A1501      52.549  83.305  12.753 -0.50 +0.12    +0.102 C 
DOCKED: BRANCH  36  37
DOCKED: ATOM     37  CGD HEM A1501      52.372  84.780  13.064 -0.45 +0.27    +0.186 C 
DOCKED: ATOM     38  O1D HEM A1501      53.442  85.421  12.982 -0.57 -1.30    -0.647 OA
DOCKED: ATOM     39  O2D HEM A1501      51.206  85.311  13.338 -0.64 -0.96    -0.647 OA
DOCKED: ENDBRANCH  36  37
DOCKED: ENDBRANCH  35  36
DOCKED: ENDBRANCH  22  35
DOCKED: BRANCH  17  40
DOCKED: ATOM     40  CAC HEM A1501      55.790  76.060  15.670 -0.53 +0.00    +0.001 C 
DOCKED: ATOM     41  CBC HEM A1501      55.561  75.121  16.600 -0.61 +0.00    +0.000 C 
DOCKED: ENDBRANCH  17  40
DOCKED: BRANCH  12  42
DOCKED: ATOM     42  CAB HEM A1501      55.526  72.349   8.749 -0.54 +0.00    +0.001 C 
DOCKED: ATOM     43  CBB HEM A1501      54.802  71.464   9.404 -0.53 +0.00    +0.000 C 
DOCKED: ENDBRANCH  12  42
DOCKED: TORSDOF 8
DOCKED: TER
DOCKED: ENDMDL
________________________________________________________________________________


	BEGINNING GENETIC ALGORITHM DOCKING 31 of 100
Run: 31 Seed: 972809516 593318978 [ Run 31 of 100 GA/GALS ]
Beginning LAMARCKIAN GENETIC ALGORITHM (LGA), with a maximum of 2500000 energy evaluations.

Final-Value: -22.371


	FINAL GENETIC ALGORITHM DOCKED STATE
	_______________________________________________


Detailed state:  trans 55.009 78.572 10.119 quatxyzw -0.141165 0.975203 -0.170192 0.009242 center 54.495 78.699 10.493 ntor 8 122.1792 154.1847 104.8223 103.6236 23.2282 -51.2210 -163.3755 165.4641
State:	 55.009  78.572  10.119  -0.141  0.975 -0.170 178.941    122.18  154.18  104.82  103.62   23.23  -51.22 -163.38  165.46

DOCKED: MODEL       31
DOCKED: USER    Run = 31
DOCKED: USER    DPF = C:/Users/georg/Desktop/fall2024/4-Computational_Biology/Assignment/executables/HEM.dpf
DOCKED: USER  
DOCKED: USER    Estimated Free Energy of Binding    =  -19.30 kcal/mol  [=(1)+(2)+(3)-(4)]
DOCKED: USER    Estimated Inhibition Constant, Ki   =    7.15 fM (femtomolar)  [Temperature = 298.15 K]
DOCKED: USER    
DOCKED: USER    (1) Final Intermolecular Energy     =  -21.68 kcal/mol
DOCKED: USER        vdW + Hbond + desolv Energy     =  -17.68 kcal/mol
DOCKED: USER        Electrostatic Energy            =   -4.00 kcal/mol
DOCKED: USER    (2) Final Total Internal Energy     =   -0.69 kcal/mol
DOCKED: USER    (3) Torsional Free Energy           =   +2.39 kcal/mol
DOCKED: USER    (4) Unbound System's Energy  [=(2)] =   -0.69 kcal/mol
DOCKED: USER    
DOCKED: USER    
DOCKED: USER    NEWDPF move HEM.pdbqt
DOCKED: USER    NEWDPF about 54.495000 78.699000 10.493000
DOCKED: USER    NEWDPF tran0 55.009173 78.571611 10.118961
DOCKED: USER    NEWDPF quaternion0 -0.141165 0.975203 -0.170192 0.009242
DOCKED: USER    NEWDPF axisangle0 -0.141171 0.975245 -0.170199 178.940954
DOCKED: USER    NEWDPF quat0 -0.141171 0.975245 -0.170199 178.940954
DOCKED: USER    NEWDPF dihe0 122.18 154.18 104.82 103.62 23.23 -51.22 -163.38 165.46 
DOCKED: USER  keepresnum = 1 
DOCKED: USER  
DOCKED: REMARK  8 active torsions:
DOCKED: REMARK  status: ('A' for Active; 'I' for Inactive)
DOCKED: REMARK    1  A    between atoms: C2A_3624  and  CAA_3628 
DOCKED: REMARK    2  A    between atoms: CAA_3628  and  CBA_3629 
DOCKED: REMARK    3  A    between atoms: CBA_3629  and  CGA_3630 
DOCKED: REMARK    4  A    between atoms: C3B_3635  and  CAB_3638 
DOCKED: REMARK    5  A    between atoms: C3C_3642  and  CAC_3645 
DOCKED: REMARK    6  A    between atoms: C3D_3649  and  CAD_3652 
DOCKED: REMARK    7  A    between atoms: CAD_3652  and  CBD_3653 
DOCKED: REMARK    8  A    between atoms: CBD_3653  and  CGD_3654 
DOCKED: USER                              x       y       z     vdW  Elec       q    Type
DOCKED: USER                           _______ _______ _______ _____ _____    ______ ____
DOCKED: ROOT
DOCKED: ATOM      1  CHA HEM A1501      54.412  80.832   9.735 -0.28 +0.04    +0.038 A 
DOCKED: ATOM      2  CHB HEM A1501      54.447  76.884   6.986 -0.43 +0.02    +0.038 A 
DOCKED: ATOM      3  CHC HEM A1501      55.239  74.149  10.881 -0.41 +0.01    +0.038 A 
DOCKED: ATOM      4  CHD HEM A1501      55.270  78.109  13.625 -0.35 +0.02    +0.038 A 
DOCKED: ATOM      5  C1A HEM A1501      54.378  79.995   8.624 -0.27 +0.07    +0.079 A 
DOCKED: ATOM      6  C2A HEM A1501      54.202  80.397   7.225 -0.35 -0.01    -0.006 A 
DOCKED: ATOM      7  C3A HEM A1501      54.213  79.292   6.493 -0.39 -0.01    -0.007 A 
DOCKED: ATOM      8  C4A HEM A1501      54.403  78.201   7.400 -0.35 +0.06    +0.079 A 
DOCKED: ATOM      9  CMA HEM A1501      54.078  79.184   5.005 -0.50 +0.02    +0.032 C 
DOCKED: ATOM     10  C1B HEM A1501      54.635  75.781   7.798 -0.40 +0.04    +0.079 A 
DOCKED: ATOM     11  C2B HEM A1501      54.654  74.407   7.314 -0.49 -0.00    -0.003 A 
DOCKED: ATOM     12  C3B HEM A1501      54.862  73.641   8.416 -0.46 +0.01    +0.015 A 
DOCKED: ATOM     13  C4B HEM A1501      54.993  74.546   9.555 -0.39 +0.03    +0.083 A 
DOCKED: ATOM     14  CMB HEM A1501      54.468  73.999   5.878 -0.61 +0.02    +0.033 C 
DOCKED: ATOM     15  C1C HEM A1501      55.358  74.940  11.991 -0.36 +0.03    +0.079 A 
DOCKED: ATOM     16  C2C HEM A1501      55.695  74.478  13.309 -0.43 -0.00    -0.003 A 
DOCKED: ATOM     17  C3C HEM A1501      55.726  75.580  14.102 -0.38 +0.01    +0.015 A 
DOCKED: ATOM     18  C4C HEM A1501      55.393  76.731  13.240 -0.29 +0.04    +0.083 A 
DOCKED: ATOM     19  CMC HEM A1501      55.947  73.023  13.651 -0.51 +0.01    +0.033 C 
DOCKED: ATOM     20  C1D HEM A1501      54.977  79.233  12.815 -0.26 +0.05    +0.079 A 
DOCKED: ATOM     21  C2D HEM A1501      54.879  80.582  13.286 -0.33 -0.00    -0.007 A 
DOCKED: ATOM     22  C3D HEM A1501      54.637  81.352  12.194 -0.28 -0.00    -0.006 A 
DOCKED: ATOM     23  C4D HEM A1501      54.593  80.467  11.046 -0.20 +0.07    +0.079 A 
DOCKED: ATOM     24  CMD HEM A1501      55.018  81.042  14.682 -0.43 +0.02    +0.032 C 
DOCKED: ATOM     25  NA  HEM A1501      54.530  78.635   8.686 -0.21 -0.19    -0.246 N 
DOCKED: ATOM     26  NB  HEM A1501      54.829  75.826   9.158 -0.22 -0.12    -0.246 N 
DOCKED: ATOM     27  NC  HEM A1501      55.212  76.288  11.994 -0.08 -0.10    -0.246 N 
DOCKED: ATOM     28  ND  HEM A1501      54.806  79.190  11.460 -0.09 -0.17    -0.246 N 
DOCKED: ATOM     29 FE   HEM A1501      54.855  77.490  10.345 -0.07 +0.00    +0.000 Fe
DOCKED: ENDROOT
DOCKED: BRANCH   6  30
DOCKED: ATOM     30  CAA HEM A1501      54.044  81.775   6.684 -0.43 +0.05    +0.039 C 
DOCKED: BRANCH  30  31
DOCKED: ATOM     31  CBA HEM A1501      52.759  82.422   7.164 -0.53 +0.16    +0.102 C 
DOCKED: BRANCH  31  32
DOCKED: ATOM     32  CGA HEM A1501      52.305  83.589   6.332 -0.62 +0.35    +0.186 C 
DOCKED: ATOM     33  O1A HEM A1501      52.927  84.672   6.436 -1.18 -1.75    -0.647 OA
DOCKED: ATOM     34  O2A HEM A1501      51.357  83.419   5.539 -0.94 -1.24    -0.647 OA
DOCKED: ENDBRANCH  31  32
DOCKED: ENDBRANCH  30  31
DOCKED: ENDBRANCH   6  30
DOCKED: BRANCH  22  35
DOCKED: ATOM     35  CAD HEM A1501      54.461  82.823  12.239 -0.34 +0.04    +0.039 C 
DOCKED: BRANCH  35  36
DOCKED: ATOM     36  CBD HEM A1501      53.018  83.235  11.952 -0.41 +0.14    +0.102 C 
DOCKED: BRANCH  36  37
DOCKED: ATOM     37  CGD HEM A1501      52.467  84.215  12.972 -0.48 +0.24    +0.186 C 
DOCKED: ATOM     38  O1D HEM A1501      51.548  83.724  13.664 -0.06 -0.71    -0.647 OA
DOCKED: ATOM     39  O2D HEM A1501      52.951  85.422  13.129 -0.62 -1.25    -0.647 OA
DOCKED: ENDBRANCH  36  37
DOCKED: ENDBRANCH  35  36
DOCKED: ENDBRANCH  22  35
DOCKED: BRANCH  17  40
DOCKED: ATOM     40  CAC HEM A1501      56.019  75.662  15.538 -0.53 +0.00    +0.001 C 
DOCKED: ATOM     41  CBC HEM A1501      55.196  76.104  16.501 -0.59 +0.00    +0.000 C 
DOCKED: ENDBRANCH  17  40
DOCKED: BRANCH  12  42
DOCKED: ATOM     42  CAB HEM A1501      54.966  72.172   8.577 -0.57 +0.00    +0.001 C 
DOCKED: ATOM     43  CBB HEM A1501      55.873  71.443   9.196 -0.57 +0.00    +0.000 C 
DOCKED: ENDBRANCH  12  42
DOCKED: TORSDOF 8
DOCKED: TER
DOCKED: ENDMDL
________________________________________________________________________________


	BEGINNING GENETIC ALGORITHM DOCKING 32 of 100
Run: 32 Seed: 1405012773 229670565 [ Run 32 of 100 GA/GALS ]
Beginning LAMARCKIAN GENETIC ALGORITHM (LGA), with a maximum of 2500000 energy evaluations.

Final-Value: -22.765


	FINAL GENETIC ALGORITHM DOCKED STATE
	_______________________________________________


Detailed state:  trans 54.310 79.014 10.616 quatxyzw 0.000794 -0.019051 0.020882 -0.999600 center 54.495 78.699 10.493 ntor 8 4.4181 -27.7596 177.3859 -135.4450 -16.5502 -39.4411 -1.1659 -44.6276
State:	 54.310  79.014  10.616   0.028 -0.674  0.738 -3.241      4.42  -27.76  177.39 -135.45  -16.55  -39.44   -1.17  -44.63

DOCKED: MODEL       32
DOCKED: USER    Run = 32
DOCKED: USER    DPF = C:/Users/georg/Desktop/fall2024/4-Computational_Biology/Assignment/executables/HEM.dpf
DOCKED: USER  
DOCKED: USER    Estimated Free Energy of Binding    =  -20.06 kcal/mol  [=(1)+(2)+(3)-(4)]
DOCKED: USER    Estimated Inhibition Constant, Ki   =    1.98 fM (femtomolar)  [Temperature = 298.15 K]
DOCKED: USER    
DOCKED: USER    (1) Final Intermolecular Energy     =  -22.44 kcal/mol
DOCKED: USER        vdW + Hbond + desolv Energy     =  -18.46 kcal/mol
DOCKED: USER        Electrostatic Energy            =   -3.98 kcal/mol
DOCKED: USER    (2) Final Total Internal Energy     =   -0.32 kcal/mol
DOCKED: USER    (3) Torsional Free Energy           =   +2.39 kcal/mol
DOCKED: USER    (4) Unbound System's Energy  [=(2)] =   -0.32 kcal/mol
DOCKED: USER    
DOCKED: USER    
DOCKED: USER    NEWDPF move HEM.pdbqt
DOCKED: USER    NEWDPF about 54.495000 78.699000 10.493000
DOCKED: USER    NEWDPF tran0 54.310041 79.014089 10.615908
DOCKED: USER    NEWDPF quaternion0 0.000794 -0.019051 0.020882 -0.999600
DOCKED: USER    NEWDPF axisangle0 0.028094 -0.673724 0.738449 -3.240819
DOCKED: USER    NEWDPF quat0 0.028094 -0.673724 0.738449 -3.240819
DOCKED: USER    NEWDPF dihe0 4.42 -27.76 177.39 -135.45 -16.55 -39.44 -1.17 -44.63 
DOCKED: USER  keepresnum = 1 
DOCKED: USER  
DOCKED: REMARK  8 active torsions:
DOCKED: REMARK  status: ('A' for Active; 'I' for Inactive)
DOCKED: REMARK    1  A    between atoms: C2A_3624  and  CAA_3628 
DOCKED: REMARK    2  A    between atoms: CAA_3628  and  CBA_3629 
DOCKED: REMARK    3  A    between atoms: CBA_3629  and  CGA_3630 
DOCKED: REMARK    4  A    between atoms: C3B_3635  and  CAB_3638 
DOCKED: REMARK    5  A    between atoms: C3C_3642  and  CAC_3645 
DOCKED: REMARK    6  A    between atoms: C3D_3649  and  CAD_3652 
DOCKED: REMARK    7  A    between atoms: CAD_3652  and  CBD_3653 
DOCKED: REMARK    8  A    between atoms: CBD_3653  and  CGD_3654 
DOCKED: USER                              x       y       z     vdW  Elec       q    Type
DOCKED: USER                           _______ _______ _______ _____ _____    ______ ____
DOCKED: ROOT
DOCKED: ATOM      1  CHA HEM A1501      54.161  81.342  10.204 -0.29 +0.04    +0.038 A 
DOCKED: ATOM      2  CHB HEM A1501      54.982  78.705  14.142 -0.40 +0.02    +0.038 A 
DOCKED: ATOM      3  CHC HEM A1501      55.492  74.754  11.420 -0.40 +0.01    +0.038 A 
DOCKED: ATOM      4  CHD HEM A1501      54.605  77.382   7.481 -0.38 +0.03    +0.038 A 
DOCKED: ATOM      5  C1A HEM A1501      54.314  80.967  11.534 -0.24 +0.07    +0.079 A 
DOCKED: ATOM      6  C2A HEM A1501      54.199  81.835  12.711 -0.35 -0.01    -0.006 A 
DOCKED: ATOM      7  C3A HEM A1501      54.432  81.084  13.778 -0.40 -0.00    -0.007 A 
DOCKED: ATOM      8  C4A HEM A1501      54.680  79.758  13.301 -0.32 +0.05    +0.079 A 
DOCKED: ATOM      9  CMA HEM A1501      54.420  81.513  15.213 -0.47 +0.02    +0.032 C 
DOCKED: ATOM     10  C1B HEM A1501      55.224  77.399  13.757 -0.34 +0.03    +0.079 A 
DOCKED: ATOM     11  C2B HEM A1501      55.558  76.326  14.685 -0.41 -0.00    -0.003 A 
DOCKED: ATOM     12  C3B HEM A1501      55.716  75.220  13.912 -0.39 +0.01    +0.015 A 
DOCKED: ATOM     13  C4B HEM A1501      55.455  75.615  12.531 -0.32 +0.03    +0.083 A 
DOCKED: ATOM     14  CMB HEM A1501      55.690  76.487  16.174 -0.55 +0.01    +0.033 C 
DOCKED: ATOM     15  C1C HEM A1501      55.273  75.061  10.105 -0.36 +0.03    +0.079 A 
DOCKED: ATOM     16  C2C HEM A1501      55.244  74.115   9.024 -0.46 -0.00    -0.003 A 
DOCKED: ATOM     17  C3C HEM A1501      54.978  74.830   7.900 -0.46 +0.01    +0.015 A 
DOCKED: ATOM     18  C4C HEM A1501      54.853  76.241   8.316 -0.35 +0.05    +0.083 A 
DOCKED: ATOM     19  CMC HEM A1501      55.475  72.628   9.202 -0.52 +0.01    +0.033 C 
DOCKED: ATOM     20  C1D HEM A1501      54.456  78.740   7.857 -0.32 +0.06    +0.079 A 
DOCKED: ATOM     21  C2D HEM A1501      54.203  79.820   6.952 -0.36 -0.01    -0.007 A 
DOCKED: ATOM     22  C3D HEM A1501      54.078  80.937   7.714 -0.35 -0.01    -0.006 A 
DOCKED: ATOM     23  C4D HEM A1501      54.249  80.535   9.096 -0.27 +0.08    +0.079 A 
DOCKED: ATOM     24  CMD HEM A1501      54.095  79.734   5.482 -0.49 +0.03    +0.032 C 
DOCKED: ATOM     25  NA  HEM A1501      54.580  79.687  11.943 -0.13 -0.18    -0.246 N 
DOCKED: ATOM     26  NB  HEM A1501      55.185  76.936  12.464 -0.11 -0.11    -0.246 N 
DOCKED: ATOM     27  NC  HEM A1501      55.012  76.308   9.639 -0.06 -0.12    -0.246 N 
DOCKED: ATOM     28  ND  HEM A1501      54.474  79.195   9.146 -0.18 -0.20    -0.246 N 
DOCKED: ATOM     29 FE   HEM A1501      54.803  78.026  10.776 -0.07 +0.00    +0.000 Fe
DOCKED: ENDROOT
DOCKED: BRANCH   6  30
DOCKED: ATOM     30  CAA HEM A1501      53.878  83.288  12.746 -0.44 +0.04    +0.039 C 
DOCKED: BRANCH  30  31
DOCKED: ATOM     31  CBA HEM A1501      52.408  83.530  13.028 -0.52 +0.11    +0.102 C 
DOCKED: BRANCH  31  32
DOCKED: ATOM     32  CGA HEM A1501      52.096  84.905  13.553 -0.49 +0.26    +0.186 C 
DOCKED: ATOM     33  O1A HEM A1501      53.046  85.701  13.735 -0.39 -1.14    -0.647 OA
DOCKED: ATOM     34  O2A HEM A1501      50.900  85.211  13.741 -0.79 -0.88    -0.647 OA
DOCKED: ENDBRANCH  31  32
DOCKED: ENDBRANCH  30  31
DOCKED: ENDBRANCH   6  30
DOCKED: BRANCH  22  35
DOCKED: ATOM     35  CAD HEM A1501      53.813  82.289   7.166 -0.45 +0.06    +0.039 C 
DOCKED: BRANCH  35  36
DOCKED: ATOM     36  CBD HEM A1501      52.806  82.253   6.017 -0.57 +0.14    +0.102 C 
DOCKED: BRANCH  36  37
DOCKED: ATOM     37  CGD HEM A1501      51.861  83.440   6.019 -0.60 +0.34    +0.186 C 
DOCKED: ATOM     38  O1D HEM A1501      52.178  84.305   6.865 -0.88 -1.51    -0.647 OA
DOCKED: ATOM     39  O2D HEM A1501      50.859  83.550   5.183 -1.11 -1.35    -0.647 OA
DOCKED: ENDBRANCH  36  37
DOCKED: ENDBRANCH  35  36
DOCKED: ENDBRANCH  22  35
DOCKED: BRANCH  17  40
DOCKED: ATOM     40  CAC HEM A1501      54.843  74.345   6.522 -0.60 +0.00    +0.001 C 
DOCKED: ATOM     41  CBC HEM A1501      53.787  74.512   5.711 -0.67 +0.00    +0.000 C 
DOCKED: ENDBRANCH  17  40
DOCKED: BRANCH  12  42
DOCKED: ATOM     42  CAB HEM A1501      56.071  73.826  14.265 -0.56 +0.00    +0.001 C 
DOCKED: ATOM     43  CBB HEM A1501      57.072  73.355  14.981 -0.63 +0.00    +0.000 C 
DOCKED: ENDBRANCH  12  42
DOCKED: TORSDOF 8
DOCKED: TER
DOCKED: ENDMDL
________________________________________________________________________________


	BEGINNING GENETIC ALGORITHM DOCKING 33 of 100
Run: 33 Seed: 780048672 1293033870 [ Run 33 of 100 GA/GALS ]
Beginning LAMARCKIAN GENETIC ALGORITHM (LGA), with a maximum of 2500000 energy evaluations.

Final-Value: -21.827


	FINAL GENETIC ALGORITHM DOCKED STATE
	_______________________________________________


Detailed state:  trans 54.327 78.738 10.372 quatxyzw 0.016077 0.017786 -0.019897 0.999515 center 54.495 78.699 10.493 ntor 8 2.8511 -31.5491 -103.9834 179.3366 59.6225 -5.4699 -179.8945 11.8551
State:	 54.327  78.738  10.372   0.516  0.571 -0.639  3.571      2.85  -31.55 -103.98  179.34   59.62   -5.47 -179.89   11.86

DOCKED: MODEL       33
DOCKED: USER    Run = 33
DOCKED: USER    DPF = C:/Users/georg/Desktop/fall2024/4-Computational_Biology/Assignment/executables/HEM.dpf
DOCKED: USER  
DOCKED: USER    Estimated Free Energy of Binding    =  -18.75 kcal/mol  [=(1)+(2)+(3)-(4)]
DOCKED: USER    Estimated Inhibition Constant, Ki   =   18.04 fM (femtomolar)  [Temperature = 298.15 K]
DOCKED: USER    
DOCKED: USER    (1) Final Intermolecular Energy     =  -21.14 kcal/mol
DOCKED: USER        vdW + Hbond + desolv Energy     =  -17.29 kcal/mol
DOCKED: USER        Electrostatic Energy            =   -3.84 kcal/mol
DOCKED: USER    (2) Final Total Internal Energy     =   -0.69 kcal/mol
DOCKED: USER    (3) Torsional Free Energy           =   +2.39 kcal/mol
DOCKED: USER    (4) Unbound System's Energy  [=(2)] =   -0.69 kcal/mol
DOCKED: USER    
DOCKED: USER    
DOCKED: USER    NEWDPF move HEM.pdbqt
DOCKED: USER    NEWDPF about 54.495000 78.699000 10.493000
DOCKED: USER    NEWDPF tran0 54.326692 78.738299 10.372324
DOCKED: USER    NEWDPF quaternion0 0.016077 0.017786 -0.019897 0.999515
DOCKED: USER    NEWDPF axisangle0 0.516004 0.570880 -0.638620 3.570777
DOCKED: USER    NEWDPF quat0 0.516004 0.570880 -0.638620 3.570777
DOCKED: USER    NEWDPF dihe0 2.85 -31.55 -103.98 179.34 59.62 -5.47 -179.89 11.86 
DOCKED: USER  keepresnum = 1 
DOCKED: USER  
DOCKED: REMARK  8 active torsions:
DOCKED: REMARK  status: ('A' for Active; 'I' for Inactive)
DOCKED: REMARK    1  A    between atoms: C2A_3624  and  CAA_3628 
DOCKED: REMARK    2  A    between atoms: CAA_3628  and  CBA_3629 
DOCKED: REMARK    3  A    between atoms: CBA_3629  and  CGA_3630 
DOCKED: REMARK    4  A    between atoms: C3B_3635  and  CAB_3638 
DOCKED: REMARK    5  A    between atoms: C3C_3642  and  CAC_3645 
DOCKED: REMARK    6  A    between atoms: C3D_3649  and  CAD_3652 
DOCKED: REMARK    7  A    between atoms: CAD_3652  and  CBD_3653 
DOCKED: REMARK    8  A    between atoms: CBD_3653  and  CGD_3654 
DOCKED: USER                              x       y       z     vdW  Elec       q    Type
DOCKED: USER                           _______ _______ _______ _____ _____    ______ ____
DOCKED: ROOT
DOCKED: ATOM      1  CHA HEM A1501      54.183  81.052   9.882 -0.29 +0.04    +0.038 A 
DOCKED: ATOM      2  CHB HEM A1501      55.004  78.547  13.906 -0.38 +0.02    +0.038 A 
DOCKED: ATOM      3  CHC HEM A1501      55.499  74.505  11.318 -0.41 +0.01    +0.038 A 
DOCKED: ATOM      4  CHD HEM A1501      54.612  77.001   7.294 -0.40 +0.02    +0.038 A 
DOCKED: ATOM      5  C1A HEM A1501      54.337  80.721  11.224 -0.21 +0.07    +0.079 A 
DOCKED: ATOM      6  C2A HEM A1501      54.227  81.629  12.371 -0.33 -0.01    -0.006 A 
DOCKED: ATOM      7  C3A HEM A1501      54.460  80.914  13.462 -0.38 -0.00    -0.007 A 
DOCKED: ATOM      8  C4A HEM A1501      54.704  79.571  13.030 -0.29 +0.05    +0.079 A 
DOCKED: ATOM      9  CMA HEM A1501      54.451  81.391  14.883 -0.48 +0.02    +0.032 C 
DOCKED: ATOM     10  C1B HEM A1501      55.242  77.228  13.565 -0.32 +0.03    +0.079 A 
DOCKED: ATOM     11  C2B HEM A1501      55.575  76.185  14.528 -0.40 -0.00    -0.003 A 
DOCKED: ATOM     12  C3B HEM A1501      55.729  75.054  13.792 -0.40 +0.01    +0.015 A 
DOCKED: ATOM     13  C4B HEM A1501      55.466  75.403  12.399 -0.33 +0.03    +0.083 A 
DOCKED: ATOM     14  CMB HEM A1501      55.710  76.397  16.010 -0.54 +0.01    +0.033 C 
DOCKED: ATOM     15  C1C HEM A1501      55.278  74.768   9.993 -0.38 +0.03    +0.079 A 
DOCKED: ATOM     16  C2C HEM A1501      55.245  73.786   8.945 -0.47 -0.00    -0.003 A 
DOCKED: ATOM     17  C3C HEM A1501      54.979  74.464   7.798 -0.46 +0.01    +0.015 A 
DOCKED: ATOM     18  C4C HEM A1501      54.858  75.888   8.167 -0.37 +0.05    +0.083 A 
DOCKED: ATOM     19  CMC HEM A1501      55.473  72.305   9.173 -0.53 +0.01    +0.033 C 
DOCKED: ATOM     20  C1D HEM A1501      54.467  78.371   7.624 -0.33 +0.06    +0.079 A 
DOCKED: ATOM     21  C2D HEM A1501      54.215  79.421   6.684 -0.38 -0.01    -0.007 A 
DOCKED: ATOM     22  C3D HEM A1501      54.094  80.563   7.407 -0.36 -0.01    -0.006 A 
DOCKED: ATOM     23  C4D HEM A1501      54.267  80.207   8.802 -0.28 +0.08    +0.079 A 
DOCKED: ATOM     24  CMD HEM A1501      54.104  79.285   5.217 -0.50 +0.02    +0.032 C 
DOCKED: ATOM     25  NA  HEM A1501      54.601  79.455  11.675 -0.09 -0.18    -0.246 N 
DOCKED: ATOM     26  NB  HEM A1501      55.199  76.722  12.287 -0.09 -0.11    -0.246 N 
DOCKED: ATOM     27  NC  HEM A1501      55.020  75.999   9.487 -0.17 -0.12    -0.246 N 
DOCKED: ATOM     28  ND  HEM A1501      54.488  78.869   8.896 -0.20 -0.20    -0.246 N 
DOCKED: ATOM     29 FE   HEM A1501      54.817  77.755  10.565 -0.07 +0.00    +0.000 Fe
DOCKED: ENDROOT
DOCKED: BRANCH   6  30
DOCKED: ATOM     30  CAA HEM A1501      53.909  83.083  12.358 -0.42 +0.05    +0.039 C 
DOCKED: BRANCH  30  31
DOCKED: ATOM     31  CBA HEM A1501      55.133  83.921  12.041 -0.18 +0.15    +0.102 C 
DOCKED: BRANCH  31  32
DOCKED: ATOM     32  CGA HEM A1501      55.449  84.970  13.072 -0.28 +0.24    +0.186 C 
DOCKED: ATOM     33  O1A HEM A1501      56.000  84.609  14.138 +0.03 -0.46    -0.647 OA
DOCKED: ATOM     34  O2A HEM A1501      55.192  86.161  12.804 -0.48 -1.24    -0.647 OA
DOCKED: ENDBRANCH  31  32
DOCKED: ENDBRANCH  30  31
DOCKED: ENDBRANCH   6  30
DOCKED: BRANCH  22  35
DOCKED: ATOM     35  CAD HEM A1501      53.832  81.896   6.815 -0.46 +0.05    +0.039 C 
DOCKED: BRANCH  35  36
DOCKED: ATOM     36  CBD HEM A1501      52.346  82.253   6.847 -0.57 +0.16    +0.102 C 
DOCKED: BRANCH  36  37
DOCKED: ATOM     37  CGD HEM A1501      52.060  83.648   6.323 -0.62 +0.36    +0.186 C 
DOCKED: ATOM     38  O1D HEM A1501      52.941  84.474   6.648 -1.02 -1.71    -0.647 OA
DOCKED: ATOM     39  O2D HEM A1501      51.024  83.923   5.569 -0.99 -1.37    -0.647 OA
DOCKED: ENDBRANCH  36  37
DOCKED: ENDBRANCH  35  36
DOCKED: ENDBRANCH  22  35
DOCKED: BRANCH  17  40
DOCKED: ATOM     40  CAC HEM A1501      54.840  73.932   6.437 -0.60 +0.00    +0.001 C 
DOCKED: ATOM     41  CBC HEM A1501      53.771  74.050   5.634 -0.67 +0.00    +0.000 C 
DOCKED: ENDBRANCH  17  40
DOCKED: BRANCH  12  42
DOCKED: ATOM     42  CAB HEM A1501      56.081  73.672  14.191 -0.57 +0.00    +0.001 C 
DOCKED: ATOM     43  CBB HEM A1501      57.118  73.215  14.865 -0.63 +0.00    +0.000 C 
DOCKED: ENDBRANCH  12  42
DOCKED: TORSDOF 8
DOCKED: TER
DOCKED: ENDMDL
________________________________________________________________________________


	BEGINNING GENETIC ALGORITHM DOCKING 34 of 100
Run: 34 Seed: 105614451 948271418 [ Run 34 of 100 GA/GALS ]
Beginning LAMARCKIAN GENETIC ALGORITHM (LGA), with a maximum of 2500000 energy evaluations.

Final-Value: -23.116


	FINAL GENETIC ALGORITHM DOCKED STATE
	_______________________________________________


Detailed state:  trans 54.410 78.936 10.424 quatxyzw 0.014715 0.031178 -0.009643 0.999359 center 54.495 78.699 10.493 ntor 8 0.6618 -34.0249 180.0000 42.5663 -28.9783 -25.4935 -4.5959 -19.8740
State:	 54.410  78.936  10.424   0.411  0.871 -0.269  4.103      0.66  -34.02  180.00   42.57  -28.98  -25.49   -4.60  -19.87

DOCKED: MODEL       34
DOCKED: USER    Run = 34
DOCKED: USER    DPF = C:/Users/georg/Desktop/fall2024/4-Computational_Biology/Assignment/executables/HEM.dpf
DOCKED: USER  
DOCKED: USER    Estimated Free Energy of Binding    =  -20.15 kcal/mol  [=(1)+(2)+(3)-(4)]
DOCKED: USER    Estimated Inhibition Constant, Ki   =    1.71 fM (femtomolar)  [Temperature = 298.15 K]
DOCKED: USER    
DOCKED: USER    (1) Final Intermolecular Energy     =  -22.53 kcal/mol
DOCKED: USER        vdW + Hbond + desolv Energy     =  -18.39 kcal/mol
DOCKED: USER        Electrostatic Energy            =   -4.15 kcal/mol
DOCKED: USER    (2) Final Total Internal Energy     =   -0.58 kcal/mol
DOCKED: USER    (3) Torsional Free Energy           =   +2.39 kcal/mol
DOCKED: USER    (4) Unbound System's Energy  [=(2)] =   -0.58 kcal/mol
DOCKED: USER    
DOCKED: USER    
DOCKED: USER    NEWDPF move HEM.pdbqt
DOCKED: USER    NEWDPF about 54.495000 78.699000 10.493000
DOCKED: USER    NEWDPF tran0 54.410062 78.936270 10.423619
DOCKED: USER    NEWDPF quaternion0 0.014715 0.031178 -0.009643 0.999359
DOCKED: USER    NEWDPF axisangle0 0.411035 0.870914 -0.269367 4.103195
DOCKED: USER    NEWDPF quat0 0.411035 0.870914 -0.269367 4.103195
DOCKED: USER    NEWDPF dihe0 0.66 -34.02 180.00 42.57 -28.98 -25.49 -4.60 -19.87 
DOCKED: USER  keepresnum = 1 
DOCKED: USER  
DOCKED: REMARK  8 active torsions:
DOCKED: REMARK  status: ('A' for Active; 'I' for Inactive)
DOCKED: REMARK    1  A    between atoms: C2A_3624  and  CAA_3628 
DOCKED: REMARK    2  A    between atoms: CAA_3628  and  CBA_3629 
DOCKED: REMARK    3  A    between atoms: CBA_3629  and  CGA_3630 
DOCKED: REMARK    4  A    between atoms: C3B_3635  and  CAB_3638 
DOCKED: REMARK    5  A    between atoms: C3C_3642  and  CAC_3645 
DOCKED: REMARK    6  A    between atoms: C3D_3649  and  CAD_3652 
DOCKED: REMARK    7  A    between atoms: CAD_3652  and  CBD_3653 
DOCKED: REMARK    8  A    between atoms: CBD_3653  and  CGD_3654 
DOCKED: USER                              x       y       z     vdW  Elec       q    Type
DOCKED: USER                           _______ _______ _______ _____ _____    ______ ____
DOCKED: ROOT
DOCKED: ATOM      1  CHA HEM A1501      54.326  81.254   9.938 -0.28 +0.04    +0.038 A 
DOCKED: ATOM      2  CHB HEM A1501      54.987  78.719  13.973 -0.39 +0.02    +0.038 A 
DOCKED: ATOM      3  CHC HEM A1501      55.472  74.677  11.384 -0.40 +0.01    +0.038 A 
DOCKED: ATOM      4  CHD HEM A1501      54.744  77.204   7.347 -0.37 +0.02    +0.038 A 
DOCKED: ATOM      5  C1A HEM A1501      54.437  80.916  11.283 -0.23 +0.07    +0.079 A 
DOCKED: ATOM      6  C2A HEM A1501      54.314  81.822  12.430 -0.33 -0.01    -0.006 A 
DOCKED: ATOM      7  C3A HEM A1501      54.503  81.098  13.525 -0.37 -0.00    -0.007 A 
DOCKED: ATOM      8  C4A HEM A1501      54.732  79.753  13.094 -0.30 +0.05    +0.079 A 
DOCKED: ATOM      9  CMA HEM A1501      54.465  81.571  14.946 -0.47 +0.02    +0.032 C 
DOCKED: ATOM     10  C1B HEM A1501      55.209  77.397  13.634 -0.33 +0.03    +0.079 A 
DOCKED: ATOM     11  C2B HEM A1501      55.495  76.345  14.601 -0.39 -0.00    -0.003 A 
DOCKED: ATOM     12  C3B HEM A1501      55.645  75.213  13.865 -0.39 +0.01    +0.015 A 
DOCKED: ATOM     13  C4B HEM A1501      55.427  75.572  12.467 -0.32 +0.03    +0.083 A 
DOCKED: ATOM     14  CMB HEM A1501      55.593  76.549  16.088 -0.53 +0.01    +0.033 C 
DOCKED: ATOM     15  C1C HEM A1501      55.292  74.949  10.055 -0.37 +0.03    +0.079 A 
DOCKED: ATOM     16  C2C HEM A1501      55.267  73.971   9.002 -0.46 -0.00    -0.003 A 
DOCKED: ATOM     17  C3C HEM A1501      55.046  74.658   7.852 -0.46 +0.01    +0.015 A 
DOCKED: ATOM     18  C4C HEM A1501      54.944  76.083   8.222 -0.35 +0.05    +0.083 A 
DOCKED: ATOM     19  CMC HEM A1501      55.460  72.486   9.230 -0.53 +0.01    +0.033 C 
DOCKED: ATOM     20  C1D HEM A1501      54.617  78.575   7.678 -0.31 +0.06    +0.079 A 
DOCKED: ATOM     21  C2D HEM A1501      54.412  79.633   6.736 -0.36 -0.01    -0.007 A 
DOCKED: ATOM     22  C3D HEM A1501      54.295  80.775   7.460 -0.33 -0.01    -0.006 A 
DOCKED: ATOM     23  C4D HEM A1501      54.422  80.411   8.858 -0.26 +0.08    +0.079 A 
DOCKED: ATOM     24  CMD HEM A1501      54.338  79.505   5.266 -0.50 +0.03    +0.032 C 
DOCKED: ATOM     25  NA  HEM A1501      54.663  79.643  11.736 -0.12 -0.18    -0.246 N 
DOCKED: ATOM     26  NB  HEM A1501      55.190  76.896  12.354 -0.09 -0.11    -0.246 N 
DOCKED: ATOM     27  NC  HEM A1501      55.072  76.186   9.546 -0.15 -0.12    -0.246 N 
DOCKED: ATOM     28  ND  HEM A1501      54.614  79.069   8.953 -0.18 -0.20    -0.246 N 
DOCKED: ATOM     29 FE   HEM A1501      54.876  77.942  10.626 -0.07 +0.00    +0.000 Fe
DOCKED: ENDROOT
DOCKED: BRANCH   6  30
DOCKED: ATOM     30  CAA HEM A1501      54.026  83.282  12.414 -0.40 +0.05    +0.039 C 
DOCKED: BRANCH  30  31
DOCKED: ATOM     31  CBA HEM A1501      52.544  83.562  12.568 -0.49 +0.13    +0.102 C 
DOCKED: BRANCH  31  32
DOCKED: ATOM     32  CGA HEM A1501      52.228  84.831  13.312 -0.48 +0.26    +0.186 C 
DOCKED: ATOM     33  O1A HEM A1501      53.181  85.540  13.710 -0.45 -1.08    -0.647 OA
DOCKED: ATOM     34  O2A HEM A1501      51.030  85.148  13.461 -0.63 -0.89    -0.647 OA
DOCKED: ENDBRANCH  31  32
DOCKED: ENDBRANCH  30  31
DOCKED: ENDBRANCH   6  30
DOCKED: BRANCH  22  35
DOCKED: ATOM     35  CAD HEM A1501      54.075  82.115   6.867 -0.42 +0.05    +0.039 C 
DOCKED: BRANCH  35  36
DOCKED: ATOM     36  CBD HEM A1501      52.726  82.210   6.154 -0.57 +0.14    +0.102 C 
DOCKED: BRANCH  36  37
DOCKED: ATOM     37  CGD HEM A1501      52.216  83.635   6.038 -0.65 +0.34    +0.186 C 
DOCKED: ATOM     38  O1D HEM A1501      51.063  83.695   5.559 -1.01 -1.35    -0.647 OA
DOCKED: ATOM     39  O2D HEM A1501      52.906  84.670   6.448 -1.17 -1.75    -0.647 OA
DOCKED: ENDBRANCH  36  37
DOCKED: ENDBRANCH  35  36
DOCKED: ENDBRANCH  22  35
DOCKED: BRANCH  17  40
DOCKED: ATOM     40  CAC HEM A1501      54.933  74.134   6.485 -0.60 +0.00    +0.001 C 
DOCKED: ATOM     41  CBC HEM A1501      53.874  74.241   5.669 -0.66 +0.00    +0.000 C 
DOCKED: ENDBRANCH  17  40
DOCKED: BRANCH  12  42
DOCKED: ATOM     42  CAB HEM A1501      55.959  73.823  14.269 -0.55 +0.00    +0.001 C 
DOCKED: ATOM     43  CBB HEM A1501      56.990  73.338  14.932 -0.64 +0.00    +0.000 C 
DOCKED: ENDBRANCH  12  42
DOCKED: TORSDOF 8
DOCKED: TER
DOCKED: ENDMDL
________________________________________________________________________________


	BEGINNING GENETIC ALGORITHM DOCKING 35 of 100
Run: 35 Seed: 260999733 88751874 [ Run 35 of 100 GA/GALS ]
Beginning LAMARCKIAN GENETIC ALGORITHM (LGA), with a maximum of 2500000 energy evaluations.

Final-Value: -22.145


	FINAL GENETIC ALGORITHM DOCKED STATE
	_______________________________________________


Detailed state:  trans 55.019 78.558 10.165 quatxyzw -0.142471 0.972408 -0.184731 0.000279 center 54.495 78.699 10.493 ntor 8 -154.1442 159.9986 -105.6694 -115.7737 36.2476 -22.8877 -145.1060 179.9588
State:	 55.019  78.558  10.165  -0.142  0.972 -0.185 179.968   -154.14  160.00 -105.67 -115.77   36.25  -22.89 -145.11  179.96

DOCKED: MODEL       35
DOCKED: USER    Run = 35
DOCKED: USER    DPF = C:/Users/georg/Desktop/fall2024/4-Computational_Biology/Assignment/executables/HEM.dpf
DOCKED: USER  
DOCKED: USER    Estimated Free Energy of Binding    =  -19.23 kcal/mol  [=(1)+(2)+(3)-(4)]
DOCKED: USER    Estimated Inhibition Constant, Ki   =    8.03 fM (femtomolar)  [Temperature = 298.15 K]
DOCKED: USER    
DOCKED: USER    (1) Final Intermolecular Energy     =  -21.62 kcal/mol
DOCKED: USER        vdW + Hbond + desolv Energy     =  -17.27 kcal/mol
DOCKED: USER        Electrostatic Energy            =   -4.34 kcal/mol
DOCKED: USER    (2) Final Total Internal Energy     =   -0.53 kcal/mol
DOCKED: USER    (3) Torsional Free Energy           =   +2.39 kcal/mol
DOCKED: USER    (4) Unbound System's Energy  [=(2)] =   -0.53 kcal/mol
DOCKED: USER    
DOCKED: USER    
DOCKED: USER    NEWDPF move HEM.pdbqt
DOCKED: USER    NEWDPF about 54.495000 78.699000 10.493000
DOCKED: USER    NEWDPF tran0 55.018755 78.558487 10.164777
DOCKED: USER    NEWDPF quaternion0 -0.142471 0.972408 -0.184731 0.000279
DOCKED: USER    NEWDPF axisangle0 -0.142471 0.972408 -0.184731 179.968078
DOCKED: USER    NEWDPF quat0 -0.142471 0.972408 -0.184731 179.968078
DOCKED: USER    NEWDPF dihe0 -154.14 160.00 -105.67 -115.77 36.25 -22.89 -145.11 179.96 
DOCKED: USER  keepresnum = 1 
DOCKED: USER  
DOCKED: REMARK  8 active torsions:
DOCKED: REMARK  status: ('A' for Active; 'I' for Inactive)
DOCKED: REMARK    1  A    between atoms: C2A_3624  and  CAA_3628 
DOCKED: REMARK    2  A    between atoms: CAA_3628  and  CBA_3629 
DOCKED: REMARK    3  A    between atoms: CBA_3629  and  CGA_3630 
DOCKED: REMARK    4  A    between atoms: C3B_3635  and  CAB_3638 
DOCKED: REMARK    5  A    between atoms: C3C_3642  and  CAC_3645 
DOCKED: REMARK    6  A    between atoms: C3D_3649  and  CAD_3652 
DOCKED: REMARK    7  A    between atoms: CAD_3652  and  CBD_3653 
DOCKED: REMARK    8  A    between atoms: CBD_3653  and  CGD_3654 
DOCKED: USER                              x       y       z     vdW  Elec       q    Type
DOCKED: USER                           _______ _______ _______ _____ _____    ______ ____
DOCKED: ROOT
DOCKED: ATOM      1  CHA HEM A1501      54.415  80.803   9.707 -0.28 +0.04    +0.038 A 
DOCKED: ATOM      2  CHB HEM A1501      54.534  76.784   7.067 -0.42 +0.02    +0.038 A 
DOCKED: ATOM      3  CHC HEM A1501      55.261  74.160  11.050 -0.41 +0.01    +0.038 A 
DOCKED: ATOM      4  CHD HEM A1501      55.208  78.191  13.687 -0.36 +0.02    +0.038 A 
DOCKED: ATOM      5  C1A HEM A1501      54.410  79.937   8.619 -0.27 +0.07    +0.079 A 
DOCKED: ATOM      6  C2A HEM A1501      54.261  80.301   7.206 -0.35 -0.01    -0.006 A 
DOCKED: ATOM      7  C3A HEM A1501      54.295  79.177   6.505 -0.38 -0.01    -0.007 A 
DOCKED: ATOM      8  C4A HEM A1501      54.473  78.111   7.444 -0.34 +0.06    +0.079 A 
DOCKED: ATOM      9  CMA HEM A1501      54.193  79.028   5.018 -0.51 +0.02    +0.032 C 
DOCKED: ATOM     10  C1B HEM A1501      54.712  75.705   7.913 -0.39 +0.04    +0.079 A 
DOCKED: ATOM     11  C2B HEM A1501      54.750  74.318   7.465 -0.48 -0.00    -0.003 A 
DOCKED: ATOM     12  C3B HEM A1501      54.939  73.583   8.592 -0.46 +0.01    +0.015 A 
DOCKED: ATOM     13  C4B HEM A1501      55.040  74.519   9.708 -0.39 +0.03    +0.083 A 
DOCKED: ATOM     14  CMB HEM A1501      54.597  73.871   6.038 -0.60 +0.02    +0.033 C 
DOCKED: ATOM     15  C1C HEM A1501      55.351  74.981  12.141 -0.35 +0.03    +0.079 A 
DOCKED: ATOM     16  C2C HEM A1501      55.663  74.556  13.478 -0.43 -0.00    -0.003 A 
DOCKED: ATOM     17  C3C HEM A1501      55.670  75.680  14.240 -0.38 +0.01    +0.015 A 
DOCKED: ATOM     18  C4C HEM A1501      55.348  76.805  13.341 -0.30 +0.04    +0.083 A 
DOCKED: ATOM     19  CMC HEM A1501      55.917  73.113  13.863 -0.53 +0.01    +0.033 C 
DOCKED: ATOM     20  C1D HEM A1501      54.925  79.292  12.841 -0.26 +0.05    +0.079 A 
DOCKED: ATOM     21  C2D HEM A1501      54.809  80.651  13.273 -0.33 -0.00    -0.007 A 
DOCKED: ATOM     22  C3D HEM A1501      54.585  81.391  12.156 -0.28 -0.00    -0.006 A 
DOCKED: ATOM     23  C4D HEM A1501      54.571  80.475  11.032 -0.20 +0.07    +0.079 A 
DOCKED: ATOM     24  CMD HEM A1501      54.916  81.150  14.659 -0.43 +0.02    +0.032 C 
DOCKED: ATOM     25  NA  HEM A1501      54.570  78.580   8.721 -0.20 -0.19    -0.246 N 
DOCKED: ATOM     26  NB  HEM A1501      54.876  75.787   9.275 -0.22 -0.12    -0.246 N 
DOCKED: ATOM     27  NC  HEM A1501      55.196  76.327  12.104 -0.10 -0.10    -0.246 N 
DOCKED: ATOM     28  ND  HEM A1501      54.784  79.211  11.484 -0.08 -0.17    -0.246 N 
DOCKED: ATOM     29 FE   HEM A1501      54.867  77.482  10.417 -0.07 +0.00    +0.000 Fe
DOCKED: ENDROOT
DOCKED: BRANCH   6  30
DOCKED: ATOM     30  CAA HEM A1501      54.106  81.662   6.625 -0.42 +0.05    +0.039 C 
DOCKED: BRANCH  30  31
DOCKED: ATOM     31  CBA HEM A1501      53.075  82.479   7.379 -0.45 +0.16    +0.102 C 
DOCKED: BRANCH  31  32
DOCKED: ATOM     32  CGA HEM A1501      52.313  83.455   6.526 -0.59 +0.35    +0.186 C 
DOCKED: ATOM     33  O1A HEM A1501      51.419  83.012   5.769 -0.46 -1.19    -0.647 OA
DOCKED: ATOM     34  O2A HEM A1501      52.572  84.671   6.640 -1.05 -1.72    -0.647 OA
DOCKED: ENDBRANCH  31  32
DOCKED: ENDBRANCH  30  31
DOCKED: ENDBRANCH   6  30
DOCKED: BRANCH  22  35
DOCKED: ATOM     35  CAD HEM A1501      54.399  82.861  12.158 -0.34 +0.04    +0.039 C 
DOCKED: BRANCH  35  36
DOCKED: ATOM     36  CBD HEM A1501      52.921  83.250  12.186 -0.46 +0.13    +0.102 C 
DOCKED: BRANCH  36  37
DOCKED: ATOM     37  CGD HEM A1501      52.690  84.664  12.686 -0.43 +0.29    +0.186 C 
DOCKED: ATOM     38  O1D HEM A1501      53.665  85.416  12.470 -0.55 -1.49    -0.647 OA
DOCKED: ATOM     39  O2D HEM A1501      51.564  85.046  13.236 -0.41 -0.93    -0.647 OA
DOCKED: ENDBRANCH  36  37
DOCKED: ENDBRANCH  35  36
DOCKED: ENDBRANCH  22  35
DOCKED: BRANCH  17  40
DOCKED: ATOM     40  CAC HEM A1501      55.932  75.801  15.680 -0.54 +0.00    +0.001 C 
DOCKED: ATOM     41  CBC HEM A1501      55.593  74.922  16.635 -0.61 +0.00    +0.000 C 
DOCKED: ENDBRANCH  17  40
DOCKED: BRANCH  12  42
DOCKED: ATOM     42  CAB HEM A1501      55.049  72.120   8.795 -0.58 +0.00    +0.001 C 
DOCKED: ATOM     43  CBB HEM A1501      55.888  71.420   9.533 -0.59 +0.00    +0.000 C 
DOCKED: ENDBRANCH  12  42
DOCKED: TORSDOF 8
DOCKED: TER
DOCKED: ENDMDL
________________________________________________________________________________


	BEGINNING GENETIC ALGORITHM DOCKING 36 of 100
Run: 36 Seed: 1832268451 2093142122 [ Run 36 of 100 GA/GALS ]
Beginning LAMARCKIAN GENETIC ALGORITHM (LGA), with a maximum of 2500000 energy evaluations.

Final-Value: -23.605


	FINAL GENETIC ALGORITHM DOCKED STATE
	_______________________________________________


Detailed state:  trans 54.939 79.186 10.935 quatxyzw -0.196575 0.963189 -0.179252 -0.038667 center 54.495 78.699 10.493 ntor 8 176.8455 -45.9304 180.0000 -153.8405 0.1448 -16.0373 145.1389 -162.2304
State:	 54.939  79.186  10.935  -0.197  0.964 -0.179 -175.568    176.85  -45.93  180.00 -153.84    0.14  -16.04  145.14 -162.23

DOCKED: MODEL       36
DOCKED: USER    Run = 36
DOCKED: USER    DPF = C:/Users/georg/Desktop/fall2024/4-Computational_Biology/Assignment/executables/HEM.dpf
DOCKED: USER  
DOCKED: USER    Estimated Free Energy of Binding    =  -20.67 kcal/mol  [=(1)+(2)+(3)-(4)]
DOCKED: USER    Estimated Inhibition Constant, Ki   =  710.98 aM (attomolar)  [Temperature = 298.15 K]
DOCKED: USER    
DOCKED: USER    (1) Final Intermolecular Energy     =  -23.05 kcal/mol
DOCKED: USER        vdW + Hbond + desolv Energy     =  -18.97 kcal/mol
DOCKED: USER        Electrostatic Energy            =   -4.09 kcal/mol
DOCKED: USER    (2) Final Total Internal Energy     =   -0.55 kcal/mol
DOCKED: USER    (3) Torsional Free Energy           =   +2.39 kcal/mol
DOCKED: USER    (4) Unbound System's Energy  [=(2)] =   -0.55 kcal/mol
DOCKED: USER    
DOCKED: USER    
DOCKED: USER    NEWDPF move HEM.pdbqt
DOCKED: USER    NEWDPF about 54.495000 78.699000 10.493000
DOCKED: USER    NEWDPF tran0 54.938631 79.186018 10.935251
DOCKED: USER    NEWDPF quaternion0 -0.196575 0.963189 -0.179252 -0.038667
DOCKED: USER    NEWDPF axisangle0 -0.196722 0.963909 -0.179386 -175.567998
DOCKED: USER    NEWDPF quat0 -0.196722 0.963909 -0.179386 -175.567998
DOCKED: USER    NEWDPF dihe0 176.85 -45.93 180.00 -153.84 0.14 -16.04 145.14 -162.23 
DOCKED: USER  keepresnum = 1 
DOCKED: USER  
DOCKED: REMARK  8 active torsions:
DOCKED: REMARK  status: ('A' for Active; 'I' for Inactive)
DOCKED: REMARK    1  A    between atoms: C2A_3624  and  CAA_3628 
DOCKED: REMARK    2  A    between atoms: CAA_3628  and  CBA_3629 
DOCKED: REMARK    3  A    between atoms: CBA_3629  and  CGA_3630 
DOCKED: REMARK    4  A    between atoms: C3B_3635  and  CAB_3638 
DOCKED: REMARK    5  A    between atoms: C3C_3642  and  CAC_3645 
DOCKED: REMARK    6  A    between atoms: C3D_3649  and  CAD_3652 
DOCKED: REMARK    7  A    between atoms: CAD_3652  and  CBD_3653 
DOCKED: REMARK    8  A    between atoms: CBD_3653  and  CGD_3654 
DOCKED: USER                              x       y       z     vdW  Elec       q    Type
DOCKED: USER                           _______ _______ _______ _____ _____    ______ ____
DOCKED: ROOT
DOCKED: ATOM      1  CHA HEM A1501      54.090  81.350  10.479 -0.29 +0.04    +0.038 A 
DOCKED: ATOM      2  CHB HEM A1501      54.839  77.433   7.789 -0.33 +0.03    +0.038 A 
DOCKED: ATOM      3  CHC HEM A1501      55.671  74.831  11.766 -0.39 +0.01    +0.038 A 
DOCKED: ATOM      4  CHD HEM A1501      54.985  78.768  14.457 -0.38 +0.01    +0.038 A 
DOCKED: ATOM      5  C1A HEM A1501      54.248  80.513   9.379 -0.26 +0.08    +0.079 A 
DOCKED: ATOM      6  C2A HEM A1501      54.131  80.887   7.966 -0.35 -0.01    -0.006 A 
DOCKED: ATOM      7  C3A HEM A1501      54.339  79.791   7.251 -0.35 -0.01    -0.007 A 
DOCKED: ATOM      8  C4A HEM A1501      54.596  78.735   8.182 -0.30 +0.06    +0.079 A 
DOCKED: ATOM      9  CMA HEM A1501      54.335  79.663   5.758 -0.47 +0.03    +0.032 C 
DOCKED: ATOM     10  C1B HEM A1501      55.103  76.366   8.627 -0.30 +0.04    +0.079 A 
DOCKED: ATOM     11  C2B HEM A1501      55.334  75.003   8.162 -0.44 -0.00    -0.003 A 
DOCKED: ATOM     12  C3B HEM A1501      55.552  74.273   9.286 -0.44 +0.01    +0.015 A 
DOCKED: ATOM     13  C4B HEM A1501      55.479  75.190  10.420 -0.34 +0.03    +0.083 A 
DOCKED: ATOM     14  CMB HEM A1501      55.313  74.572   6.721 -0.57 +0.02    +0.033 C 
DOCKED: ATOM     15  C1C HEM A1501      55.602  75.633  12.872 -0.33 +0.03    +0.079 A 
DOCKED: ATOM     16  C2C HEM A1501      55.891  75.221  14.218 -0.41 -0.00    -0.003 A 
DOCKED: ATOM     17  C3C HEM A1501      55.721  76.320  14.997 -0.42 +0.01    +0.015 A 
DOCKED: ATOM     18  C4C HEM A1501      55.311  77.417  14.098 -0.35 +0.03    +0.083 A 
DOCKED: ATOM     19  CMC HEM A1501      56.300  73.811  14.595 -0.56 +0.01    +0.033 C 
DOCKED: ATOM     20  C1D HEM A1501      54.614  79.844  13.613 -0.35 +0.05    +0.079 A 
DOCKED: ATOM     21  C2D HEM A1501      54.310  81.170  14.058 -0.41 -0.00    -0.007 A 
DOCKED: ATOM     22  C3D HEM A1501      54.056  81.901  12.942 -0.38 -0.00    -0.006 A 
DOCKED: ATOM     23  C4D HEM A1501      54.214  81.015  11.805 -0.26 +0.07    +0.079 A 
DOCKED: ATOM     24  CMD HEM A1501      54.281  81.648  15.455 -0.42 +0.01    +0.032 C 
DOCKED: ATOM     25  NA  HEM A1501      54.568  79.184   9.470 -0.16 -0.20    -0.246 N 
DOCKED: ATOM     26  NB  HEM A1501      55.184  76.437   9.997 -0.07 -0.12    -0.246 N 
DOCKED: ATOM     27  NC  HEM A1501      55.285  76.951  12.848 -0.18 -0.11    -0.246 N 
DOCKED: ATOM     28  ND  HEM A1501      54.556  79.777  12.249 -0.16 -0.17    -0.246 N 
DOCKED: ATOM     29 FE   HEM A1501      54.907  78.094  11.162 -0.07 +0.00    +0.000 Fe
DOCKED: ENDROOT
DOCKED: BRANCH   6  30
DOCKED: ATOM     30  CAA HEM A1501      53.841  82.232   7.398 -0.43 +0.06    +0.039 C 
DOCKED: BRANCH  30  31
DOCKED: ATOM     31  CBA HEM A1501      52.528  82.249   6.640 -0.57 +0.15    +0.102 C 
DOCKED: BRANCH  31  32
DOCKED: ATOM     32  CGA HEM A1501      52.132  83.603   6.118 -0.64 +0.35    +0.186 C 
DOCKED: ATOM     33  O1A HEM A1501      52.903  84.568   6.324 -1.19 -1.65    -0.647 OA
DOCKED: ATOM     34  O2A HEM A1501      51.074  83.699   5.462 -1.02 -1.34    -0.647 OA
DOCKED: ENDBRANCH  31  32
DOCKED: ENDBRANCH  30  31
DOCKED: ENDBRANCH   6  30
DOCKED: BRANCH  22  35
DOCKED: ATOM     35  CAD HEM A1501      53.692  83.337  12.956 -0.47 +0.04    +0.039 C 
DOCKED: BRANCH  35  36
DOCKED: ATOM     36  CBD HEM A1501      52.229  83.552  13.344 -0.53 +0.11    +0.102 C 
DOCKED: BRANCH  36  37
DOCKED: ATOM     37  CGD HEM A1501      51.915  84.994  13.694 -0.50 +0.26    +0.186 C 
DOCKED: ATOM     38  O1D HEM A1501      52.943  85.697  13.808 -0.46 -1.10    -0.647 OA
DOCKED: ATOM     39  O2D HEM A1501      50.690  85.445  13.811 -1.11 -0.91    -0.647 OA
DOCKED: ENDBRANCH  36  37
DOCKED: ENDBRANCH  35  36
DOCKED: ENDBRANCH  22  35
DOCKED: BRANCH  17  40
DOCKED: ATOM     40  CAC HEM A1501      55.889  76.441  16.450 -0.60 +0.00    +0.001 C 
DOCKED: ATOM     41  CBC HEM A1501      55.171  75.818  17.397 -0.69 +0.00    +0.000 C 
DOCKED: ENDBRANCH  17  40
DOCKED: BRANCH  12  42
DOCKED: ATOM     42  CAB HEM A1501      55.830  72.830   9.472 -0.44 +0.00    +0.001 C 
DOCKED: ATOM     43  CBB HEM A1501      55.050  71.781   9.305 -0.59 +0.00    +0.000 C 
DOCKED: ENDBRANCH  12  42
DOCKED: TORSDOF 8
DOCKED: TER
DOCKED: ENDMDL
________________________________________________________________________________


	BEGINNING GENETIC ALGORITHM DOCKING 37 of 100
Run: 37 Seed: 517179528 47804040 [ Run 37 of 100 GA/GALS ]
Beginning LAMARCKIAN GENETIC ALGORITHM (LGA), with a maximum of 2500000 energy evaluations.

Final-Value: -23.510


	FINAL GENETIC ALGORITHM DOCKED STATE
	_______________________________________________


Detailed state:  trans 54.999 78.876 10.653 quatxyzw 0.166006 -0.976290 0.138758 0.006856 center 54.495 78.699 10.493 ntor 8 127.4910 -93.9480 141.8209 -129.5165 27.2671 11.3152 166.3686 179.8932
State:	 54.999  78.876  10.653   0.166 -0.976  0.139 179.214    127.49  -93.95  141.82 -129.52   27.27   11.32  166.37  179.89

DOCKED: MODEL       37
DOCKED: USER    Run = 37
DOCKED: USER    DPF = C:/Users/georg/Desktop/fall2024/4-Computational_Biology/Assignment/executables/HEM.dpf
DOCKED: USER  
DOCKED: USER    Estimated Free Energy of Binding    =  -20.51 kcal/mol  [=(1)+(2)+(3)-(4)]
DOCKED: USER    Estimated Inhibition Constant, Ki   =  919.94 aM (attomolar)  [Temperature = 298.15 K]
DOCKED: USER    
DOCKED: USER    (1) Final Intermolecular Energy     =  -22.90 kcal/mol
DOCKED: USER        vdW + Hbond + desolv Energy     =  -18.43 kcal/mol
DOCKED: USER        Electrostatic Energy            =   -4.47 kcal/mol
DOCKED: USER    (2) Final Total Internal Energy     =   -0.61 kcal/mol
DOCKED: USER    (3) Torsional Free Energy           =   +2.39 kcal/mol
DOCKED: USER    (4) Unbound System's Energy  [=(2)] =   -0.61 kcal/mol
DOCKED: USER    
DOCKED: USER    
DOCKED: USER    NEWDPF move HEM.pdbqt
DOCKED: USER    NEWDPF about 54.495000 78.699000 10.493000
DOCKED: USER    NEWDPF tran0 54.999339 78.876444 10.652680
DOCKED: USER    NEWDPF quaternion0 0.166006 -0.976290 0.138758 0.006856
DOCKED: USER    NEWDPF axisangle0 0.166009 -0.976313 0.138761 179.214383
DOCKED: USER    NEWDPF quat0 0.166009 -0.976313 0.138761 179.214383
DOCKED: USER    NEWDPF dihe0 127.49 -93.95 141.82 -129.52 27.27 11.32 166.37 179.89 
DOCKED: USER  keepresnum = 1 
DOCKED: USER  
DOCKED: REMARK  8 active torsions:
DOCKED: REMARK  status: ('A' for Active; 'I' for Inactive)
DOCKED: REMARK    1  A    between atoms: C2A_3624  and  CAA_3628 
DOCKED: REMARK    2  A    between atoms: CAA_3628  and  CBA_3629 
DOCKED: REMARK    3  A    between atoms: CBA_3629  and  CGA_3630 
DOCKED: REMARK    4  A    between atoms: C3B_3635  and  CAB_3638 
DOCKED: REMARK    5  A    between atoms: C3C_3642  and  CAC_3645 
DOCKED: REMARK    6  A    between atoms: C3D_3649  and  CAD_3652 
DOCKED: REMARK    7  A    between atoms: CAD_3652  and  CBD_3653 
DOCKED: REMARK    8  A    between atoms: CBD_3653  and  CGD_3654 
DOCKED: USER                              x       y       z     vdW  Elec       q    Type
DOCKED: USER                           _______ _______ _______ _____ _____    ______ ____
DOCKED: ROOT
DOCKED: ATOM      1  CHA HEM A1501      54.287  81.123  10.409 -0.27 +0.04    +0.038 A 
DOCKED: ATOM      2  CHB HEM A1501      54.567  77.375   7.406 -0.38 +0.03    +0.038 A 
DOCKED: ATOM      3  CHC HEM A1501      55.456  74.431  11.123 -0.41 +0.01    +0.038 A 
DOCKED: ATOM      4  CHD HEM A1501      55.242  78.194  14.124 -0.39 +0.02    +0.038 A 
DOCKED: ATOM      5  C1A HEM A1501      54.311  80.361   9.246 -0.26 +0.08    +0.079 A 
DOCKED: ATOM      6  C2A HEM A1501      54.131  80.847   7.873 -0.35 -0.01    -0.006 A 
DOCKED: ATOM      7  C3A HEM A1501      54.210  79.795   7.071 -0.36 -0.01    -0.007 A 
DOCKED: ATOM      8  C4A HEM A1501      54.447  78.658   7.906 -0.32 +0.06    +0.079 A 
DOCKED: ATOM      9  CMA HEM A1501      54.100  79.780   5.576 -0.49 +0.03    +0.032 C 
DOCKED: ATOM     10  C1B HEM A1501      54.804  76.232   8.147 -0.37 +0.05    +0.079 A 
DOCKED: ATOM     11  C2B HEM A1501      54.902  74.896   7.572 -0.48 -0.00    -0.003 A 
DOCKED: ATOM     12  C3B HEM A1501      55.137  74.070   8.625 -0.45 +0.01    +0.015 A 
DOCKED: ATOM     13  C4B HEM A1501      55.205  74.902   9.823 -0.38 +0.03    +0.083 A 
DOCKED: ATOM     14  CMB HEM A1501      54.755  74.576   6.110 -0.60 +0.02    +0.033 C 
DOCKED: ATOM     15  C1C HEM A1501      55.519  75.151  12.285 -0.35 +0.03    +0.079 A 
DOCKED: ATOM     16  C2C HEM A1501      55.863  74.620  13.575 -0.43 -0.00    -0.003 A 
DOCKED: ATOM     17  C3C HEM A1501      55.826  75.667  14.439 -0.39 +0.01    +0.015 A 
DOCKED: ATOM     18  C4C HEM A1501      55.442  76.854  13.650 -0.31 +0.03    +0.083 A 
DOCKED: ATOM     19  CMC HEM A1501      56.189  73.161  13.823 -0.55 +0.01    +0.033 C 
DOCKED: ATOM     20  C1D HEM A1501      54.899  79.353  13.386 -0.32 +0.04    +0.079 A 
DOCKED: ATOM     21  C2D HEM A1501      54.723  80.660  13.943 -0.39 -0.00    -0.007 A 
DOCKED: ATOM     22  C3D HEM A1501      54.453  81.488  12.901 -0.33 -0.00    -0.006 A 
DOCKED: ATOM     23  C4D HEM A1501      54.471  80.681  11.697 -0.23 +0.06    +0.079 A 
DOCKED: ATOM     24  CMD HEM A1501      54.820  81.033  15.369 -0.44 +0.01    +0.032 C 
DOCKED: ATOM     25  NA  HEM A1501      54.535  79.010   9.220 -0.18 -0.20    -0.246 N 
DOCKED: ATOM     26  NB  HEM A1501      54.978  76.195   9.510 -0.11 -0.12    -0.246 N 
DOCKED: ATOM     27  NC  HEM A1501      55.301  76.486  12.375 -0.15 -0.10    -0.246 N 
DOCKED: ATOM     28  ND  HEM A1501      54.747  79.392  12.028 -0.13 -0.17    -0.246 N 
DOCKED: ATOM     29 FE   HEM A1501      54.901  77.775  10.805 -0.07 +0.00    +0.000 Fe
DOCKED: ENDROOT
DOCKED: BRANCH   6  30
DOCKED: ATOM     30  CAA HEM A1501      53.906  82.247   7.422 -0.42 +0.06    +0.039 C 
DOCKED: BRANCH  30  31
DOCKED: ATOM     31  CBA HEM A1501      52.431  82.550   7.247 -0.55 +0.17    +0.102 C 
DOCKED: BRANCH  31  32
DOCKED: ATOM     32  CGA HEM A1501      52.139  83.687   6.307 -0.63 +0.36    +0.186 C 
DOCKED: ATOM     33  O1A HEM A1501      52.914  84.671   6.305 -1.21 -1.70    -0.647 OA
DOCKED: ATOM     34  O2A HEM A1501      51.164  83.582   5.534 -1.02 -1.31    -0.647 OA
DOCKED: ENDBRANCH  31  32
DOCKED: ENDBRANCH  30  31
DOCKED: ENDBRANCH   6  30
DOCKED: BRANCH  22  35
DOCKED: ATOM     35  CAD HEM A1501      54.199  82.942  13.041 -0.39 +0.04    +0.039 C 
DOCKED: BRANCH  35  36
DOCKED: ATOM     36  CBD HEM A1501      52.705  83.256  13.111 -0.52 +0.11    +0.102 C 
DOCKED: BRANCH  36  37
DOCKED: ATOM     37  CGD HEM A1501      52.401  84.731  12.931 -0.44 +0.28    +0.186 C 
DOCKED: ATOM     38  O1D HEM A1501      53.379  85.374  12.490 -0.53 -1.46    -0.647 OA
DOCKED: ATOM     39  O2D HEM A1501      51.219  85.246  13.167 -0.57 -0.96    -0.647 OA
DOCKED: ENDBRANCH  36  37
DOCKED: ENDBRANCH  35  36
DOCKED: ENDBRANCH  22  35
DOCKED: BRANCH  17  40
DOCKED: ATOM     40  CAC HEM A1501      56.096  75.667  15.882 -0.55 +0.00    +0.001 C 
DOCKED: ATOM     41  CBC HEM A1501      55.214  75.904  16.865 -0.64 +0.00    +0.000 C 
DOCKED: ENDBRANCH  17  40
DOCKED: BRANCH  12  42
DOCKED: ATOM     42  CAB HEM A1501      55.318  72.601   8.690 -0.55 +0.00    +0.001 C 
DOCKED: ATOM     43  CBB HEM A1501      54.605  71.679   9.304 -0.54 +0.00    +0.000 C 
DOCKED: ENDBRANCH  12  42
DOCKED: TORSDOF 8
DOCKED: TER
DOCKED: ENDMDL
________________________________________________________________________________


	BEGINNING GENETIC ALGORITHM DOCKING 38 of 100
Run: 38 Seed: 701696247 1603500276 [ Run 38 of 100 GA/GALS ]
Beginning LAMARCKIAN GENETIC ALGORITHM (LGA), with a maximum of 2500000 energy evaluations.

Final-Value: -23.577


	FINAL GENETIC ALGORITHM DOCKED STATE
	_______________________________________________


Detailed state:  trans 54.937 78.875 10.645 quatxyzw 0.161893 -0.974663 0.154346 -0.000759 center 54.495 78.699 10.493 ntor 8 132.2409 171.0865 155.4051 -112.4013 8.5498 9.0023 157.7475 -179.1053
State:	 54.937  78.875  10.645   0.162 -0.975  0.154 -179.913    132.24  171.09  155.41 -112.40    8.55    9.00  157.75 -179.11

DOCKED: MODEL       38
DOCKED: USER    Run = 38
DOCKED: USER    DPF = C:/Users/georg/Desktop/fall2024/4-Computational_Biology/Assignment/executables/HEM.dpf
DOCKED: USER  
DOCKED: USER    Estimated Free Energy of Binding    =  -20.69 kcal/mol  [=(1)+(2)+(3)-(4)]
DOCKED: USER    Estimated Inhibition Constant, Ki   =  683.37 aM (attomolar)  [Temperature = 298.15 K]
DOCKED: USER    
DOCKED: USER    (1) Final Intermolecular Energy     =  -23.08 kcal/mol
DOCKED: USER        vdW + Hbond + desolv Energy     =  -18.31 kcal/mol
DOCKED: USER        Electrostatic Energy            =   -4.77 kcal/mol
DOCKED: USER    (2) Final Total Internal Energy     =   -0.50 kcal/mol
DOCKED: USER    (3) Torsional Free Energy           =   +2.39 kcal/mol
DOCKED: USER    (4) Unbound System's Energy  [=(2)] =   -0.50 kcal/mol
DOCKED: USER    
DOCKED: USER    
DOCKED: USER    NEWDPF move HEM.pdbqt
DOCKED: USER    NEWDPF about 54.495000 78.699000 10.493000
DOCKED: USER    NEWDPF tran0 54.936791 78.875000 10.644830
DOCKED: USER    NEWDPF quaternion0 0.161893 -0.974663 0.154346 -0.000759
DOCKED: USER    NEWDPF axisangle0 0.161893 -0.974663 0.154346 -179.912996
DOCKED: USER    NEWDPF quat0 0.161893 -0.974663 0.154346 -179.912996
DOCKED: USER    NEWDPF dihe0 132.24 171.09 155.41 -112.40 8.55 9.00 157.75 -179.11 
DOCKED: USER  keepresnum = 1 
DOCKED: USER  
DOCKED: REMARK  8 active torsions:
DOCKED: REMARK  status: ('A' for Active; 'I' for Inactive)
DOCKED: REMARK    1  A    between atoms: C2A_3624  and  CAA_3628 
DOCKED: REMARK    2  A    between atoms: CAA_3628  and  CBA_3629 
DOCKED: REMARK    3  A    between atoms: CBA_3629  and  CGA_3630 
DOCKED: REMARK    4  A    between atoms: C3B_3635  and  CAB_3638 
DOCKED: REMARK    5  A    between atoms: C3C_3642  and  CAC_3645 
DOCKED: REMARK    6  A    between atoms: C3D_3649  and  CAD_3652 
DOCKED: REMARK    7  A    between atoms: CAD_3652  and  CBD_3653 
DOCKED: REMARK    8  A    between atoms: CBD_3653  and  CGD_3654 
DOCKED: USER                              x       y       z     vdW  Elec       q    Type
DOCKED: USER                           _______ _______ _______ _____ _____    ______ ____
DOCKED: ROOT
DOCKED: ATOM      1  CHA HEM A1501      54.244  81.119  10.333 -0.27 +0.04    +0.038 A 
DOCKED: ATOM      2  CHB HEM A1501      54.461  77.271   7.454 -0.40 +0.03    +0.038 A 
DOCKED: ATOM      3  CHC HEM A1501      55.355  74.443  11.260 -0.41 +0.01    +0.038 A 
DOCKED: ATOM      4  CHD HEM A1501      55.203  78.306  14.135 -0.39 +0.02    +0.038 A 
DOCKED: ATOM      5  C1A HEM A1501      54.251  80.319   9.195 -0.26 +0.08    +0.079 A 
DOCKED: ATOM      6  C2A HEM A1501      54.064  80.760   7.809 -0.36 -0.01    -0.006 A 
DOCKED: ATOM      7  C3A HEM A1501      54.125  79.682   7.041 -0.37 -0.01    -0.007 A 
DOCKED: ATOM      8  C4A HEM A1501      54.359  78.570   7.911 -0.33 +0.06    +0.079 A 
DOCKED: ATOM      9  CMA HEM A1501      54.002  79.618   5.549 -0.47 +0.03    +0.032 C 
DOCKED: ATOM     10  C1B HEM A1501      54.694  76.151   8.230 -0.37 +0.05    +0.079 A 
DOCKED: ATOM     11  C2B HEM A1501      54.774  74.795   7.700 -0.48 -0.00    -0.003 A 
DOCKED: ATOM     12  C3B HEM A1501      55.010  74.002   8.778 -0.45 +0.01    +0.015 A 
DOCKED: ATOM     13  C4B HEM A1501      55.097  74.873   9.946 -0.37 +0.03    +0.083 A 
DOCKED: ATOM     14  CMB HEM A1501      54.612  74.428   6.251 -0.59 +0.02    +0.033 C 
DOCKED: ATOM     15  C1C HEM A1501      55.435  75.201  12.397 -0.35 +0.03    +0.079 A 
DOCKED: ATOM     16  C2C HEM A1501      55.785  74.710  13.701 -0.42 -0.00    -0.003 A 
DOCKED: ATOM     17  C3C HEM A1501      55.765  75.785  14.529 -0.39 +0.01    +0.015 A 
DOCKED: ATOM     18  C4C HEM A1501      55.386  76.949  13.704 -0.32 +0.03    +0.083 A 
DOCKED: ATOM     19  CMC HEM A1501      56.099  73.257  13.995 -0.55 +0.01    +0.033 C 
DOCKED: ATOM     20  C1D HEM A1501      54.864  79.444  13.361 -0.32 +0.04    +0.079 A 
DOCKED: ATOM     21  C2D HEM A1501      54.706  80.770  13.876 -0.38 -0.00    -0.007 A 
DOCKED: ATOM     22  C3D HEM A1501      54.435  81.566  12.809 -0.32 -0.00    -0.006 A 
DOCKED: ATOM     23  C4D HEM A1501      54.435  80.719  11.632 -0.23 +0.07    +0.079 A 
DOCKED: ATOM     24  CMD HEM A1501      54.820  81.189  15.287 -0.47 +0.01    +0.032 C 
DOCKED: ATOM     25  NA  HEM A1501      54.462  78.965   9.212 -0.18 -0.20    -0.246 N 
DOCKED: ATOM     26  NB  HEM A1501      54.880  76.158   9.592 -0.05 -0.12    -0.246 N 
DOCKED: ATOM     27  NC  HEM A1501      55.230  76.541  12.444 -0.14 -0.11    -0.246 N 
DOCKED: ATOM     28  ND  HEM A1501      54.702  79.439  12.004 -0.13 -0.17    -0.246 N 
DOCKED: ATOM     29 FE   HEM A1501      54.829  77.780  10.834 -0.07 +0.00    +0.000 Fe
DOCKED: ENDROOT
DOCKED: BRANCH   6  30
DOCKED: ATOM     30  CAA HEM A1501      53.848  82.147   7.313 -0.44 +0.06    +0.039 C 
DOCKED: BRANCH  30  31
DOCKED: ATOM     31  CBA HEM A1501      52.399  82.391   6.941 -0.57 +0.16    +0.102 C 
DOCKED: BRANCH  31  32
DOCKED: ATOM     32  CGA HEM A1501      52.134  83.740   6.331 -0.63 +0.36    +0.186 C 
DOCKED: ATOM     33  O1A HEM A1501      52.936  84.671   6.576 -1.14 -1.80    -0.647 OA
DOCKED: ATOM     34  O2A HEM A1501      51.153  83.864   5.569 -1.00 -1.34    -0.647 OA
DOCKED: ENDBRANCH  31  32
DOCKED: ENDBRANCH  30  31
DOCKED: ENDBRANCH   6  30
DOCKED: BRANCH  22  35
DOCKED: ATOM     35  CAD HEM A1501      54.196  83.025  12.903 -0.39 +0.04    +0.039 C 
DOCKED: BRANCH  35  36
DOCKED: ATOM     36  CBD HEM A1501      52.707  83.355  13.000 -0.52 +0.11    +0.102 C 
DOCKED: BRANCH  36  37
DOCKED: ATOM     37  CGD HEM A1501      52.416  84.834  12.829 -0.37 +0.29    +0.186 C 
DOCKED: ATOM     38  O1D HEM A1501      53.236  85.402  12.075 -0.42 -1.60    -0.647 OA
DOCKED: ATOM     39  O2D HEM A1501      51.382  85.422  13.379 -0.65 -1.01    -0.647 OA
DOCKED: ENDBRANCH  36  37
DOCKED: ENDBRANCH  35  36
DOCKED: ENDBRANCH  22  35
DOCKED: BRANCH  17  40
DOCKED: ATOM     40  CAC HEM A1501      56.048  75.831  15.969 -0.56 +0.00    +0.001 C 
DOCKED: ATOM     41  CBC HEM A1501      55.160  76.022  16.957 -0.65 +0.00    +0.000 C 
DOCKED: ENDBRANCH  17  40
DOCKED: BRANCH  12  42
DOCKED: ATOM     42  CAB HEM A1501      55.177  72.535   8.890 -0.56 +0.00    +0.001 C 
DOCKED: ATOM     43  CBB HEM A1501      55.919  71.820   9.712 -0.56 +0.00    +0.000 C 
DOCKED: ENDBRANCH  12  42
DOCKED: TORSDOF 8
DOCKED: TER
DOCKED: ENDMDL
________________________________________________________________________________


	BEGINNING GENETIC ALGORITHM DOCKING 39 of 100
Run: 39 Seed: 1962807803 1662565469 [ Run 39 of 100 GA/GALS ]
Beginning LAMARCKIAN GENETIC ALGORITHM (LGA), with a maximum of 2500000 energy evaluations.

Final-Value: -22.567


	FINAL GENETIC ALGORITHM DOCKED STATE
	_______________________________________________


Detailed state:  trans 54.345 78.463 10.351 quatxyzw 0.009323 -0.014813 0.032590 -0.999316 center 54.495 78.699 10.493 ntor 8 4.5396 -6.5404 23.2446 -174.7294 -2.4409 -3.3951 145.3280 -6.2189
State:	 54.345  78.463  10.351   0.252 -0.400  0.881 -4.240      4.54   -6.54   23.24 -174.73   -2.44   -3.40  145.33   -6.22

DOCKED: MODEL       39
DOCKED: USER    Run = 39
DOCKED: USER    DPF = C:/Users/georg/Desktop/fall2024/4-Computational_Biology/Assignment/executables/HEM.dpf
DOCKED: USER  
DOCKED: USER    Estimated Free Energy of Binding    =  -19.66 kcal/mol  [=(1)+(2)+(3)-(4)]
DOCKED: USER    Estimated Inhibition Constant, Ki   =    3.91 fM (femtomolar)  [Temperature = 298.15 K]
DOCKED: USER    
DOCKED: USER    (1) Final Intermolecular Energy     =  -22.04 kcal/mol
DOCKED: USER        vdW + Hbond + desolv Energy     =  -17.95 kcal/mol
DOCKED: USER        Electrostatic Energy            =   -4.09 kcal/mol
DOCKED: USER    (2) Final Total Internal Energy     =   -0.53 kcal/mol
DOCKED: USER    (3) Torsional Free Energy           =   +2.39 kcal/mol
DOCKED: USER    (4) Unbound System's Energy  [=(2)] =   -0.53 kcal/mol
DOCKED: USER    
DOCKED: USER    
DOCKED: USER    NEWDPF move HEM.pdbqt
DOCKED: USER    NEWDPF about 54.495000 78.699000 10.493000
DOCKED: USER    NEWDPF tran0 54.345044 78.462667 10.351136
DOCKED: USER    NEWDPF quaternion0 0.009323 -0.014813 0.032590 -0.999316
DOCKED: USER    NEWDPF axisangle0 0.252010 -0.400431 0.880991 -4.240010
DOCKED: USER    NEWDPF quat0 0.252010 -0.400431 0.880991 -4.240010
DOCKED: USER    NEWDPF dihe0 4.54 -6.54 23.24 -174.73 -2.44 -3.40 145.33 -6.22 
DOCKED: USER  keepresnum = 1 
DOCKED: USER  
DOCKED: REMARK  8 active torsions:
DOCKED: REMARK  status: ('A' for Active; 'I' for Inactive)
DOCKED: REMARK    1  A    between atoms: C2A_3624  and  CAA_3628 
DOCKED: REMARK    2  A    between atoms: CAA_3628  and  CBA_3629 
DOCKED: REMARK    3  A    between atoms: CBA_3629  and  CGA_3630 
DOCKED: REMARK    4  A    between atoms: C3B_3635  and  CAB_3638 
DOCKED: REMARK    5  A    between atoms: C3C_3642  and  CAC_3645 
DOCKED: REMARK    6  A    between atoms: C3D_3649  and  CAD_3652 
DOCKED: REMARK    7  A    between atoms: CAD_3652  and  CBD_3653 
DOCKED: REMARK    8  A    between atoms: CBD_3653  and  CGD_3654 
DOCKED: USER                              x       y       z     vdW  Elec       q    Type
DOCKED: USER                           _______ _______ _______ _____ _____    ______ ____
DOCKED: ROOT
DOCKED: ATOM      1  CHA HEM A1501      54.138  80.793   9.979 -0.26 +0.04    +0.038 A 
DOCKED: ATOM      2  CHB HEM A1501      55.055  78.112  13.866 -0.38 +0.02    +0.038 A 
DOCKED: ATOM      3  CHC HEM A1501      55.635  74.219  11.075 -0.41 +0.01    +0.038 A 
DOCKED: ATOM      4  CHD HEM A1501      54.650  76.890   7.187 -0.41 +0.02    +0.038 A 
DOCKED: ATOM      5  C1A HEM A1501      54.311  80.400  11.302 -0.14 +0.07    +0.079 A 
DOCKED: ATOM      6  C2A HEM A1501      54.186  81.246  12.493 -0.34 -0.00    -0.006 A 
DOCKED: ATOM      7  C3A HEM A1501      54.447  80.484  13.546 -0.40 -0.00    -0.007 A 
DOCKED: ATOM      8  C4A HEM A1501      54.722  79.171  13.045 -0.28 +0.05    +0.079 A 
DOCKED: ATOM      9  CMA HEM A1501      54.437  80.888  14.988 -0.44 +0.01    +0.032 C 
DOCKED: ATOM     10  C1B HEM A1501      55.325  76.819  13.457 -0.31 +0.03    +0.079 A 
DOCKED: ATOM     11  C2B HEM A1501      55.693  75.739  14.364 -0.39 -0.00    -0.003 A 
DOCKED: ATOM     12  C3B HEM A1501      55.870  74.650  13.572 -0.42 +0.01    +0.015 A 
DOCKED: ATOM     13  C4B HEM A1501      55.587  75.061  12.200 -0.35 +0.03    +0.083 A 
DOCKED: ATOM     14  CMB HEM A1501      55.834  75.879  15.855 -0.52 +0.01    +0.033 C 
DOCKED: ATOM     15  C1C HEM A1501      55.397  74.543   9.766 -0.39 +0.03    +0.079 A 
DOCKED: ATOM     16  C2C HEM A1501      55.380  73.614   8.670 -0.45 -0.00    -0.003 A 
DOCKED: ATOM     17  C3C HEM A1501      55.088  74.341   7.561 -0.47 +0.01    +0.015 A 
DOCKED: ATOM     18  C4C HEM A1501      54.933  75.741   8.001 -0.37 +0.04    +0.083 A 
DOCKED: ATOM     19  CMC HEM A1501      55.648  72.130   8.822 -0.48 +0.01    +0.033 C 
DOCKED: ATOM     20  C1D HEM A1501      54.473  78.237   7.587 -0.34 +0.06    +0.079 A 
DOCKED: ATOM     21  C2D HEM A1501      54.186  79.326   6.702 -0.38 -0.01    -0.007 A 
DOCKED: ATOM     22  C3D HEM A1501      54.042  80.427   7.483 -0.36 -0.01    -0.006 A 
DOCKED: ATOM     23  C4D HEM A1501      54.235  80.006   8.857 -0.28 +0.07    +0.079 A 
DOCKED: ATOM     24  CMD HEM A1501      54.067  79.261   5.232 -0.49 +0.02    +0.032 C 
DOCKED: ATOM     25  NA  HEM A1501      54.611  79.120  11.687 +0.02 -0.17    -0.246 N 
DOCKED: ATOM     26  NB  HEM A1501      55.285  76.376  12.157 -0.12 -0.10    -0.246 N 
DOCKED: ATOM     27  NC  HEM A1501      55.102  75.790   9.324 -0.23 -0.11    -0.246 N 
DOCKED: ATOM     28  ND  HEM A1501      54.491  78.672   8.883 -0.20 -0.19    -0.246 N 
DOCKED: ATOM     29 FE   HEM A1501      54.863  77.484  10.491 -0.07 +0.00    +0.000 Fe
DOCKED: ENDROOT
DOCKED: BRANCH   6  30
DOCKED: ATOM     30  CAA HEM A1501      53.831  82.690  12.555 -0.43 +0.04    +0.039 C 
DOCKED: BRANCH  30  31
DOCKED: ATOM     31  CBA HEM A1501      54.969  83.524  13.111 -0.28 +0.10    +0.102 C 
DOCKED: BRANCH  31  32
DOCKED: ATOM     32  CGA HEM A1501      54.732  85.008  13.059 -0.29 +0.28    +0.186 C 
DOCKED: ATOM     33  O1A HEM A1501      55.727  85.769  13.044 -0.50 -0.90    -0.647 OA
DOCKED: ATOM     34  O2A HEM A1501      53.555  85.419  12.986 -0.57 -1.29    -0.647 OA
DOCKED: ENDBRANCH  31  32
DOCKED: ENDBRANCH  30  31
DOCKED: ENDBRANCH   6  30
DOCKED: BRANCH  22  35
DOCKED: ATOM     35  CAD HEM A1501      53.740  81.781   6.961 -0.46 +0.05    +0.039 C 
DOCKED: BRANCH  35  36
DOCKED: ATOM     36  CBD HEM A1501      52.262  81.939   6.604 -0.57 +0.15    +0.102 C 
DOCKED: BRANCH  36  37
DOCKED: ATOM     37  CGD HEM A1501      51.920  83.328   6.097 -0.59 +0.34    +0.186 C 
DOCKED: ATOM     38  O1D HEM A1501      52.635  84.217   6.611 -0.94 -1.51    -0.647 OA
DOCKED: ATOM     39  O2D HEM A1501      51.007  83.544   5.183 -1.15 -1.30    -0.647 OA
DOCKED: ENDBRANCH  36  37
DOCKED: ENDBRANCH  35  36
DOCKED: ENDBRANCH  22  35
DOCKED: BRANCH  17  40
DOCKED: ATOM     40  CAC HEM A1501      54.951  73.875   6.176 -0.61 +0.00    +0.001 C 
DOCKED: ATOM     41  CBC HEM A1501      53.885  74.032   5.377 -0.66 +0.00    +0.000 C 
DOCKED: ENDBRANCH  17  40
DOCKED: BRANCH  12  42
DOCKED: ATOM     42  CAB HEM A1501      56.261  73.259  13.899 -0.58 +0.00    +0.001 C 
DOCKED: ATOM     43  CBB HEM A1501      57.025  72.792  14.866 -0.65 +0.00    +0.000 C 
DOCKED: ENDBRANCH  12  42
DOCKED: TORSDOF 8
DOCKED: TER
DOCKED: ENDMDL
________________________________________________________________________________


	BEGINNING GENETIC ALGORITHM DOCKING 40 of 100
Run: 40 Seed: 1278123165 1941048190 [ Run 40 of 100 GA/GALS ]
Beginning LAMARCKIAN GENETIC ALGORITHM (LGA), with a maximum of 2500000 energy evaluations.

Final-Value: -22.635


	FINAL GENETIC ALGORITHM DOCKED STATE
	_______________________________________________


Detailed state:  trans 54.878 78.890 10.732 quatxyzw 0.189267 -0.973164 0.128809 0.023210 center 54.495 78.699 10.493 ntor 8 107.0302 -97.8748 180.0000 -176.7546 7.2110 -12.8461 140.3149 20.4250
State:	 54.878  78.890  10.732   0.189 -0.973  0.129 177.340    107.03  -97.87  180.00 -176.75    7.21  -12.85  140.31   20.42

DOCKED: MODEL       40
DOCKED: USER    Run = 40
DOCKED: USER    DPF = C:/Users/georg/Desktop/fall2024/4-Computational_Biology/Assignment/executables/HEM.dpf
DOCKED: USER  
DOCKED: USER    Estimated Free Energy of Binding    =  -19.71 kcal/mol  [=(1)+(2)+(3)-(4)]
DOCKED: USER    Estimated Inhibition Constant, Ki   =    3.54 fM (femtomolar)  [Temperature = 298.15 K]
DOCKED: USER    
DOCKED: USER    (1) Final Intermolecular Energy     =  -22.10 kcal/mol
DOCKED: USER        vdW + Hbond + desolv Energy     =  -17.44 kcal/mol
DOCKED: USER        Electrostatic Energy            =   -4.66 kcal/mol
DOCKED: USER    (2) Final Total Internal Energy     =   -0.53 kcal/mol
DOCKED: USER    (3) Torsional Free Energy           =   +2.39 kcal/mol
DOCKED: USER    (4) Unbound System's Energy  [=(2)] =   -0.53 kcal/mol
DOCKED: USER    
DOCKED: USER    
DOCKED: USER    NEWDPF move HEM.pdbqt
DOCKED: USER    NEWDPF about 54.495000 78.699000 10.493000
DOCKED: USER    NEWDPF tran0 54.878353 78.889565 10.731879
DOCKED: USER    NEWDPF quaternion0 0.189267 -0.973164 0.128809 0.023210
DOCKED: USER    NEWDPF axisangle0 0.189318 -0.973426 0.128843 177.340116
DOCKED: USER    NEWDPF quat0 0.189318 -0.973426 0.128843 177.340116
DOCKED: USER    NEWDPF dihe0 107.03 -97.87 180.00 -176.75 7.21 -12.85 140.31 20.42 
DOCKED: USER  keepresnum = 1 
DOCKED: USER  
DOCKED: REMARK  8 active torsions:
DOCKED: REMARK  status: ('A' for Active; 'I' for Inactive)
DOCKED: REMARK    1  A    between atoms: C2A_3624  and  CAA_3628 
DOCKED: REMARK    2  A    between atoms: CAA_3628  and  CBA_3629 
DOCKED: REMARK    3  A    between atoms: CBA_3629  and  CGA_3630 
DOCKED: REMARK    4  A    between atoms: C3B_3635  and  CAB_3638 
DOCKED: REMARK    5  A    between atoms: C3C_3642  and  CAC_3645 
DOCKED: REMARK    6  A    between atoms: C3D_3649  and  CAD_3652 
DOCKED: REMARK    7  A    between atoms: CAD_3652  and  CBD_3653 
DOCKED: REMARK    8  A    between atoms: CBD_3653  and  CGD_3654 
DOCKED: USER                              x       y       z     vdW  Elec       q    Type
DOCKED: USER                           _______ _______ _______ _____ _____    ______ ____
DOCKED: ROOT
DOCKED: ATOM      1  CHA HEM A1501      54.057  81.102  10.524 -0.27 +0.04    +0.038 A 
DOCKED: ATOM      2  CHB HEM A1501      54.594  77.448   7.442 -0.38 +0.03    +0.038 A 
DOCKED: ATOM      3  CHC HEM A1501      55.553  74.463  11.110 -0.41 +0.01    +0.038 A 
DOCKED: ATOM      4  CHD HEM A1501      55.080  78.137  14.192 -0.40 +0.02    +0.038 A 
DOCKED: ATOM      5  C1A HEM A1501      54.145  80.371   9.344 -0.25 +0.08    +0.079 A 
DOCKED: ATOM      6  C2A HEM A1501      53.970  80.880   7.980 -0.36 -0.01    -0.006 A 
DOCKED: ATOM      7  C3A HEM A1501      54.120  79.854   7.155 -0.36 -0.01    -0.007 A 
DOCKED: ATOM      8  C4A HEM A1501      54.398  78.710   7.969 -0.32 +0.06    +0.079 A 
DOCKED: ATOM      9  CMA HEM A1501      54.044  79.869   5.659 -0.48 +0.03    +0.032 C 
DOCKED: ATOM     10  C1B HEM A1501      54.873  76.300   8.162 -0.35 +0.05    +0.079 A 
DOCKED: ATOM     11  C2B HEM A1501      55.052  74.985   7.559 -0.48 -0.00    -0.003 A 
DOCKED: ATOM     12  C3B HEM A1501      55.306  74.147   8.597 -0.45 +0.01    +0.015 A 
DOCKED: ATOM     13  C4B HEM A1501      55.306  74.952   9.815 -0.37 +0.03    +0.083 A 
DOCKED: ATOM     14  CMB HEM A1501      54.954  74.694   6.087 -0.60 +0.02    +0.033 C 
DOCKED: ATOM     15  C1C HEM A1501      55.553  75.157  12.290 -0.35 +0.03    +0.079 A 
DOCKED: ATOM     16  C2C HEM A1501      55.897  74.613  13.575 -0.43 -0.00    -0.003 A 
DOCKED: ATOM     17  C3C HEM A1501      55.787  75.635  14.461 -0.39 +0.01    +0.015 A 
DOCKED: ATOM     18  C4C HEM A1501      55.360  76.820  13.691 -0.32 +0.03    +0.083 A 
DOCKED: ATOM     19  CMC HEM A1501      56.291  73.167  13.796 -0.55 +0.01    +0.033 C 
DOCKED: ATOM     20  C1D HEM A1501      54.694  79.294  13.473 -0.34 +0.04    +0.079 A 
DOCKED: ATOM     21  C2D HEM A1501      54.440  80.577  14.055 -0.43 -0.00    -0.007 A 
DOCKED: ATOM     22  C3D HEM A1501      54.150  81.415  13.027 -0.37 -0.00    -0.006 A 
DOCKED: ATOM     23  C4D HEM A1501      54.235  80.639  11.805 -0.21 +0.07    +0.079 A 
DOCKED: ATOM     24  CMD HEM A1501      54.487  80.920  15.491 -0.26 +0.01    +0.032 C 
DOCKED: ATOM     25  NA  HEM A1501      54.439  79.034   9.292 -0.18 -0.20    -0.246 N 
DOCKED: ATOM     26  NB  HEM A1501      55.019  76.239   9.527 -0.12 -0.12    -0.246 N 
DOCKED: ATOM     27  NC  HEM A1501      55.265  76.477  12.405 -0.15 -0.10    -0.246 N 
DOCKED: ATOM     28  ND  HEM A1501      54.570  79.358  12.113 -0.10 -0.17    -0.246 N 
DOCKED: ATOM     29 FE   HEM A1501      54.833  77.781  10.856 -0.07 +0.00    +0.000 Fe
DOCKED: ENDROOT
DOCKED: BRANCH   6  30
DOCKED: ATOM     30  CAA HEM A1501      53.684  82.278   7.556 -0.42 +0.06    +0.039 C 
DOCKED: BRANCH  30  31
DOCKED: ATOM     31  CBA HEM A1501      52.393  82.370   6.766 -0.58 +0.16    +0.102 C 
DOCKED: BRANCH  31  32
DOCKED: ATOM     32  CGA HEM A1501      52.085  83.746   6.242 -0.63 +0.36    +0.186 C 
DOCKED: ATOM     33  O1A HEM A1501      52.902  84.667   6.474 -1.16 -1.75    -0.647 OA
DOCKED: ATOM     34  O2A HEM A1501      51.051  83.903   5.560 -1.00 -1.36    -0.647 OA
DOCKED: ENDBRANCH  31  32
DOCKED: ENDBRANCH  30  31
DOCKED: ENDBRANCH   6  30
DOCKED: BRANCH  22  35
DOCKED: ATOM     35  CAD HEM A1501      53.819  82.850  13.195 -0.44 +0.04    +0.039 C 
DOCKED: BRANCH  35  36
DOCKED: ATOM     36  CBD HEM A1501      54.979  83.756  12.785 -0.29 +0.12    +0.102 C 
DOCKED: BRANCH  36  37
DOCKED: ATOM     37  CGD HEM A1501      54.586  85.219  12.697 +0.16 +0.35    +0.186 C 
DOCKED: ATOM     38  O1D HEM A1501      53.407  85.377  12.312 -0.52 -1.53    -0.647 OA
DOCKED: ATOM     39  O2D HEM A1501      55.393  86.192  13.040 -0.55 -1.04    -0.647 OA
DOCKED: ENDBRANCH  36  37
DOCKED: ENDBRANCH  35  36
DOCKED: ENDBRANCH  22  35
DOCKED: BRANCH  17  40
DOCKED: ATOM     40  CAC HEM A1501      56.025  75.614  15.909 -0.56 +0.00    +0.001 C 
DOCKED: ATOM     41  CBC HEM A1501      55.239  76.141  16.861 -0.63 +0.00    +0.000 C 
DOCKED: ENDBRANCH  17  40
DOCKED: BRANCH  12  42
DOCKED: ATOM     42  CAB HEM A1501      55.561  72.688   8.632 -0.51 +0.00    +0.001 C 
DOCKED: ATOM     43  CBB HEM A1501      54.922  71.724   9.265 -0.58 +0.00    +0.000 C 
DOCKED: ENDBRANCH  12  42
DOCKED: TORSDOF 8
DOCKED: TER
DOCKED: ENDMDL
________________________________________________________________________________


	BEGINNING GENETIC ALGORITHM DOCKING 41 of 100
Run: 41 Seed: 1344221442 557022375 [ Run 41 of 100 GA/GALS ]
Beginning LAMARCKIAN GENETIC ALGORITHM (LGA), with a maximum of 2500000 energy evaluations.

Final-Value: -23.424


	FINAL GENETIC ALGORITHM DOCKED STATE
	_______________________________________________


Detailed state:  trans 54.976 78.680 10.363 quatxyzw -0.145920 0.976626 -0.157792 0.003254 center 54.495 78.699 10.493 ntor 8 118.1348 163.1046 -52.6736 -113.5019 21.9167 -5.3271 -180.0000 -179.9125
State:	 54.976  78.680  10.363  -0.146  0.977 -0.158 179.627    118.13  163.10  -52.67 -113.50   21.92   -5.33 -180.00 -179.91

DOCKED: MODEL       41
DOCKED: USER    Run = 41
DOCKED: USER    DPF = C:/Users/georg/Desktop/fall2024/4-Computational_Biology/Assignment/executables/HEM.dpf
DOCKED: USER  
DOCKED: USER    Estimated Free Energy of Binding    =  -20.47 kcal/mol  [=(1)+(2)+(3)-(4)]
DOCKED: USER    Estimated Inhibition Constant, Ki   =  995.06 aM (attomolar)  [Temperature = 298.15 K]
DOCKED: USER    
DOCKED: USER    (1) Final Intermolecular Energy     =  -22.85 kcal/mol
DOCKED: USER        vdW + Hbond + desolv Energy     =  -18.27 kcal/mol
DOCKED: USER        Electrostatic Energy            =   -4.59 kcal/mol
DOCKED: USER    (2) Final Total Internal Energy     =   -0.57 kcal/mol
DOCKED: USER    (3) Torsional Free Energy           =   +2.39 kcal/mol
DOCKED: USER    (4) Unbound System's Energy  [=(2)] =   -0.57 kcal/mol
DOCKED: USER    
DOCKED: USER    
DOCKED: USER    NEWDPF move HEM.pdbqt
DOCKED: USER    NEWDPF about 54.495000 78.699000 10.493000
DOCKED: USER    NEWDPF tran0 54.976033 78.680243 10.363486
DOCKED: USER    NEWDPF quaternion0 -0.145920 0.976626 -0.157792 0.003254
DOCKED: USER    NEWDPF axisangle0 -0.145921 0.976631 -0.157793 179.627108
DOCKED: USER    NEWDPF quat0 -0.145921 0.976631 -0.157793 179.627108
DOCKED: USER    NEWDPF dihe0 118.13 163.10 -52.67 -113.50 21.92 -5.33 -180.00 -179.91 
DOCKED: USER  keepresnum = 1 
DOCKED: USER  
DOCKED: REMARK  8 active torsions:
DOCKED: REMARK  status: ('A' for Active; 'I' for Inactive)
DOCKED: REMARK    1  A    between atoms: C2A_3624  and  CAA_3628 
DOCKED: REMARK    2  A    between atoms: CAA_3628  and  CBA_3629 
DOCKED: REMARK    3  A    between atoms: CBA_3629  and  CGA_3630 
DOCKED: REMARK    4  A    between atoms: C3B_3635  and  CAB_3638 
DOCKED: REMARK    5  A    between atoms: C3C_3642  and  CAC_3645 
DOCKED: REMARK    6  A    between atoms: C3D_3649  and  CAD_3652 
DOCKED: REMARK    7  A    between atoms: CAD_3652  and  CBD_3653 
DOCKED: REMARK    8  A    between atoms: CBD_3653  and  CGD_3654 
DOCKED: USER                              x       y       z     vdW  Elec       q    Type
DOCKED: USER                           _______ _______ _______ _____ _____    ______ ____
DOCKED: ROOT
DOCKED: ATOM      1  CHA HEM A1501      54.357  80.943  10.035 -0.27 +0.04    +0.038 A 
DOCKED: ATOM      2  CHB HEM A1501      54.452  77.070   7.183 -0.42 +0.03    +0.038 A 
DOCKED: ATOM      3  CHC HEM A1501      55.249  74.242  11.010 -0.41 +0.01    +0.038 A 
DOCKED: ATOM      4  CHD HEM A1501      55.219  78.128  13.858 -0.37 +0.02    +0.038 A 
DOCKED: ATOM      5  C1A HEM A1501      54.339  80.136   8.902 -0.27 +0.07    +0.079 A 
DOCKED: ATOM      6  C2A HEM A1501      54.168  80.573   7.513 -0.35 -0.01    -0.006 A 
DOCKED: ATOM      7  C3A HEM A1501      54.195  79.488   6.753 -0.38 -0.01    -0.007 A 
DOCKED: ATOM      8  C4A HEM A1501      54.392  78.375   7.631 -0.34 +0.06    +0.079 A 
DOCKED: ATOM      9  CMA HEM A1501      54.072  79.418   5.261 -0.50 +0.03    +0.032 C 
DOCKED: ATOM     10  C1B HEM A1501      54.647  75.949   7.968 -0.39 +0.04    +0.079 A 
DOCKED: ATOM     11  C2B HEM A1501      54.684  74.587   7.447 -0.49 -0.00    -0.003 A 
DOCKED: ATOM     12  C3B HEM A1501      54.893  73.795   8.530 -0.46 +0.01    +0.015 A 
DOCKED: ATOM     13  C4B HEM A1501      55.007  74.671   9.693 -0.38 +0.03    +0.083 A 
DOCKED: ATOM     14  CMB HEM A1501      54.511  74.216   6.000 -0.60 +0.02    +0.033 C 
DOCKED: ATOM     15  C1C HEM A1501      55.352  75.005  12.141 -0.35 +0.03    +0.079 A 
DOCKED: ATOM     16  C2C HEM A1501      55.685  74.511  13.449 -0.43 -0.00    -0.003 A 
DOCKED: ATOM     17  C3C HEM A1501      55.700  75.592  14.270 -0.38 +0.01    +0.015 A 
DOCKED: ATOM     18  C4C HEM A1501      55.359  76.762  13.437 -0.31 +0.03    +0.083 A 
DOCKED: ATOM     19  CMC HEM A1501      55.951  73.051  13.753 -0.53 +0.01    +0.033 C 
DOCKED: ATOM     20  C1D HEM A1501      54.919  79.270  13.076 -0.29 +0.05    +0.079 A 
DOCKED: ATOM     21  C2D HEM A1501      54.804  80.604  13.581 -0.36 -0.00    -0.007 A 
DOCKED: ATOM     22  C3D HEM A1501      54.560  81.401  12.509 -0.30 -0.00    -0.006 A 
DOCKED: ATOM     23  C4D HEM A1501      54.533  80.546  11.338 -0.21 +0.07    +0.079 A 
DOCKED: ATOM     24  CMD HEM A1501      54.929  81.029  14.990 -0.45 +0.01    +0.032 C 
DOCKED: ATOM     25  NA  HEM A1501      54.506  78.776   8.930 -0.20 -0.19    -0.246 N 
DOCKED: ATOM     26  NB  HEM A1501      54.832  75.959   9.330 -0.19 -0.12    -0.246 N 
DOCKED: ATOM     27  NC  HEM A1501      55.191  76.350  12.179 -0.11 -0.10    -0.246 N 
DOCKED: ATOM     28  ND  HEM A1501      54.758  79.261  11.719 -0.10 -0.17    -0.246 N 
DOCKED: ATOM     29 FE   HEM A1501      54.833  77.591  10.560 -0.07 +0.00    +0.000 Fe
DOCKED: ENDROOT
DOCKED: BRANCH   6  30
DOCKED: ATOM     30  CAA HEM A1501      53.998  81.963   7.008 -0.43 +0.05    +0.039 C 
DOCKED: BRANCH  30  31
DOCKED: ATOM     31  CBA HEM A1501      52.565  82.438   7.143 -0.56 +0.16    +0.102 C 
DOCKED: BRANCH  31  32
DOCKED: ATOM     32  CGA HEM A1501      52.224  83.629   6.290 -0.63 +0.35    +0.186 C 
DOCKED: ATOM     33  O1A HEM A1501      51.212  83.563   5.554 -1.02 -1.30    -0.647 OA
DOCKED: ATOM     34  O2A HEM A1501      52.936  84.650   6.386 -1.19 -1.72    -0.647 OA
DOCKED: ENDBRANCH  31  32
DOCKED: ENDBRANCH  30  31
DOCKED: ENDBRANCH   6  30
DOCKED: BRANCH  22  35
DOCKED: ATOM     35  CAD HEM A1501      54.369  82.868  12.592 -0.36 +0.04    +0.039 C 
DOCKED: BRANCH  35  36
DOCKED: ATOM     36  CBD HEM A1501      52.890  83.248  12.664 -0.50 +0.12    +0.102 C 
DOCKED: BRANCH  36  37
DOCKED: ATOM     37  CGD HEM A1501      52.669  84.740  12.830 -0.40 +0.29    +0.186 C 
DOCKED: ATOM     38  O1D HEM A1501      53.578  85.422  12.308 -0.52 -1.56    -0.647 OA
DOCKED: ATOM     39  O2D HEM A1501      51.608  85.239  13.415 -0.49 -0.98    -0.647 OA
DOCKED: ENDBRANCH  36  37
DOCKED: ENDBRANCH  35  36
DOCKED: ENDBRANCH  22  35
DOCKED: BRANCH  17  40
DOCKED: ATOM     40  CAC HEM A1501      55.982  75.639  15.710 -0.54 +0.00    +0.001 C 
DOCKED: ATOM     41  CBC HEM A1501      55.177  76.116  16.672 -0.61 +0.00    +0.000 C 
DOCKED: ENDBRANCH  17  40
DOCKED: BRANCH  12  42
DOCKED: ATOM     42  CAB HEM A1501      55.012  72.324   8.653 -0.57 +0.00    +0.001 C 
DOCKED: ATOM     43  CBB HEM A1501      55.829  71.591   9.383 -0.57 +0.00    +0.000 C 
DOCKED: ENDBRANCH  12  42
DOCKED: TORSDOF 8
DOCKED: TER
DOCKED: ENDMDL
________________________________________________________________________________


	BEGINNING GENETIC ALGORITHM DOCKING 42 of 100
Run: 42 Seed: 712087675 1974659388 [ Run 42 of 100 GA/GALS ]
Beginning LAMARCKIAN GENETIC ALGORITHM (LGA), with a maximum of 2500000 energy evaluations.

Final-Value: -23.420


	FINAL GENETIC ALGORITHM DOCKED STATE
	_______________________________________________


Detailed state:  trans 54.941 78.998 10.405 quatxyzw 0.179231 -0.967244 0.177654 0.027450 center 54.495 78.699 10.493 ntor 8 179.7621 -78.1950 154.2859 -150.4793 -0.4713 -21.7803 169.3798 -163.6280
State:	 54.941  78.998  10.405   0.179 -0.968  0.178 176.854    179.76  -78.19  154.29 -150.48   -0.47  -21.78  169.38 -163.63

DOCKED: MODEL       42
DOCKED: USER    Run = 42
DOCKED: USER    DPF = C:/Users/georg/Desktop/fall2024/4-Computational_Biology/Assignment/executables/HEM.dpf
DOCKED: USER  
DOCKED: USER    Estimated Free Energy of Binding    =  -20.44 kcal/mol  [=(1)+(2)+(3)-(4)]
DOCKED: USER    Estimated Inhibition Constant, Ki   =    1.05 fM (femtomolar)  [Temperature = 298.15 K]
DOCKED: USER    
DOCKED: USER    (1) Final Intermolecular Energy     =  -22.82 kcal/mol
DOCKED: USER        vdW + Hbond + desolv Energy     =  -18.54 kcal/mol
DOCKED: USER        Electrostatic Energy            =   -4.28 kcal/mol
DOCKED: USER    (2) Final Total Internal Energy     =   -0.60 kcal/mol
DOCKED: USER    (3) Torsional Free Energy           =   +2.39 kcal/mol
DOCKED: USER    (4) Unbound System's Energy  [=(2)] =   -0.60 kcal/mol
DOCKED: USER    
DOCKED: USER    
DOCKED: USER    NEWDPF move HEM.pdbqt
DOCKED: USER    NEWDPF about 54.495000 78.699000 10.493000
DOCKED: USER    NEWDPF tran0 54.941280 78.998011 10.404717
DOCKED: USER    NEWDPF quaternion0 0.179231 -0.967244 0.177654 0.027450
DOCKED: USER    NEWDPF axisangle0 0.179299 -0.967609 0.177721 176.854061
DOCKED: USER    NEWDPF quat0 0.179299 -0.967609 0.177721 176.854061
DOCKED: USER    NEWDPF dihe0 179.76 -78.19 154.29 -150.48 -0.47 -21.78 169.38 -163.63 
DOCKED: USER  keepresnum = 1 
DOCKED: USER  
DOCKED: REMARK  8 active torsions:
DOCKED: REMARK  status: ('A' for Active; 'I' for Inactive)
DOCKED: REMARK    1  A    between atoms: C2A_3624  and  CAA_3628 
DOCKED: REMARK    2  A    between atoms: CAA_3628  and  CBA_3629 
DOCKED: REMARK    3  A    between atoms: CBA_3629  and  CGA_3630 
DOCKED: REMARK    4  A    between atoms: C3B_3635  and  CAB_3638 
DOCKED: REMARK    5  A    between atoms: C3C_3642  and  CAC_3645 
DOCKED: REMARK    6  A    between atoms: C3D_3649  and  CAD_3652 
DOCKED: REMARK    7  A    between atoms: CAD_3652  and  CBD_3653 
DOCKED: REMARK    8  A    between atoms: CBD_3653  and  CGD_3654 
DOCKED: USER                              x       y       z     vdW  Elec       q    Type
DOCKED: USER                           _______ _______ _______ _____ _____    ______ ____
DOCKED: ROOT
DOCKED: ATOM      1  CHA HEM A1501      54.170  81.194   9.965 -0.29 +0.04    +0.038 A 
DOCKED: ATOM      2  CHB HEM A1501      54.723  77.256   7.258 -0.38 +0.03    +0.038 A 
DOCKED: ATOM      3  CHC HEM A1501      55.517  74.616  11.218 -0.40 +0.01    +0.038 A 
DOCKED: ATOM      4  CHD HEM A1501      55.029  78.573  13.924 -0.38 +0.02    +0.038 A 
DOCKED: ATOM      5  C1A HEM A1501      54.278  80.354   8.862 -0.27 +0.08    +0.079 A 
DOCKED: ATOM      6  C2A HEM A1501      54.152  80.734   7.451 -0.35 -0.01    -0.006 A 
DOCKED: ATOM      7  C3A HEM A1501      54.306  79.632   6.731 -0.37 -0.01    -0.007 A 
DOCKED: ATOM      8  C4A HEM A1501      54.537  78.565   7.657 -0.32 +0.06    +0.079 A 
DOCKED: ATOM      9  CMA HEM A1501      54.272  79.507   5.239 -0.50 +0.03    +0.032 C 
DOCKED: ATOM     10  C1B HEM A1501      54.958  76.178   8.091 -0.34 +0.04    +0.079 A 
DOCKED: ATOM     11  C2B HEM A1501      55.129  74.808   7.620 -0.48 -0.00    -0.003 A 
DOCKED: ATOM     12  C3B HEM A1501      55.336  74.068   8.740 -0.45 +0.01    +0.015 A 
DOCKED: ATOM     13  C4B HEM A1501      55.317  74.985   9.876 -0.37 +0.03    +0.083 A 
DOCKED: ATOM     14  CMB HEM A1501      55.067  74.381   6.180 -0.59 +0.02    +0.033 C 
DOCKED: ATOM     15  C1C HEM A1501      55.497  75.419  12.327 -0.33 +0.03    +0.079 A 
DOCKED: ATOM     16  C2C HEM A1501      55.792  74.993  13.667 -0.42 -0.00    -0.003 A 
DOCKED: ATOM     17  C3C HEM A1501      55.678  76.097  14.450 -0.39 +0.01    +0.015 A 
DOCKED: ATOM     18  C4C HEM A1501      55.296  77.210  13.559 -0.31 +0.04    +0.083 A 
DOCKED: ATOM     19  CMC HEM A1501      56.152  73.568  14.036 -0.54 +0.01    +0.033 C 
DOCKED: ATOM     20  C1D HEM A1501      54.687  79.664  13.088 -0.30 +0.05    +0.079 A 
DOCKED: ATOM     21  C2D HEM A1501      54.441  81.000  13.540 -0.38 -0.00    -0.007 A 
DOCKED: ATOM     22  C3D HEM A1501      54.198  81.741  12.429 -0.34 -0.01    -0.006 A 
DOCKED: ATOM     23  C4D HEM A1501      54.303  80.852  11.288 -0.22 +0.07    +0.079 A 
DOCKED: ATOM     24  CMD HEM A1501      54.454  81.476  14.938 -0.48 +0.02    +0.032 C 
DOCKED: ATOM     25  NA  HEM A1501      54.547  79.013   8.945 -0.19 -0.20    -0.246 N 
DOCKED: ATOM     26  NB  HEM A1501      55.064  76.243   9.460 -0.15 -0.12    -0.246 N 
DOCKED: ATOM     27  NC  HEM A1501      55.231  76.748  12.309 -0.10 -0.11    -0.246 N 
DOCKED: ATOM     28  ND  HEM A1501      54.603  79.601  11.725 -0.11 -0.18    -0.246 N 
DOCKED: ATOM     29 FE   HEM A1501      54.871  77.907  10.631 -0.07 +0.00    +0.000 Fe
DOCKED: ENDROOT
DOCKED: BRANCH   6  30
DOCKED: ATOM     30  CAA HEM A1501      53.906  82.090   6.889 -0.45 +0.05    +0.039 C 
DOCKED: BRANCH  30  31
DOCKED: ATOM     31  CBA HEM A1501      52.426  82.354   6.690 -0.58 +0.16    +0.102 C 
DOCKED: BRANCH  31  32
DOCKED: ATOM     32  CGA HEM A1501      52.102  83.747   6.224 -0.64 +0.36    +0.186 C 
DOCKED: ATOM     33  O1A HEM A1501      52.917  84.663   6.479 -1.16 -1.75    -0.647 OA
DOCKED: ATOM     34  O2A HEM A1501      51.058  83.923   5.562 -1.00 -1.36    -0.647 OA
DOCKED: ENDBRANCH  31  32
DOCKED: ENDBRANCH  30  31
DOCKED: ENDBRANCH   6  30
DOCKED: BRANCH  22  35
DOCKED: ATOM     35  CAD HEM A1501      53.890  83.191  12.450 -0.42 +0.05    +0.039 C 
DOCKED: BRANCH  35  36
DOCKED: ATOM     36  CBD HEM A1501      52.434  83.460  12.829 -0.48 +0.12    +0.102 C 
DOCKED: BRANCH  36  37
DOCKED: ATOM     37  CGD HEM A1501      52.202  84.877  13.320 -0.48 +0.27    +0.186 C 
DOCKED: ATOM     38  O1D HEM A1501      53.266  85.517  13.462 -0.45 -1.17    -0.647 OA
DOCKED: ATOM     39  O2D HEM A1501      51.005  85.371  13.519 -0.79 -0.95    -0.647 OA
DOCKED: ENDBRANCH  36  37
DOCKED: ENDBRANCH  35  36
DOCKED: ENDBRANCH  22  35
DOCKED: BRANCH  17  40
DOCKED: ATOM     40  CAC HEM A1501      55.874  76.209  15.900 -0.55 +0.00    +0.001 C 
DOCKED: ATOM     41  CBC HEM A1501      55.183  75.570  16.856 -0.62 +0.00    +0.000 C 
DOCKED: ENDBRANCH  17  40
DOCKED: BRANCH  12  42
DOCKED: ATOM     42  CAB HEM A1501      55.561  72.615   8.920 -0.53 +0.00    +0.001 C 
DOCKED: ATOM     43  CBB HEM A1501      54.737  71.666   9.317 -0.56 +0.00    +0.000 C 
DOCKED: ENDBRANCH  12  42
DOCKED: TORSDOF 8
DOCKED: TER
DOCKED: ENDMDL
________________________________________________________________________________


	BEGINNING GENETIC ALGORITHM DOCKING 43 of 100
Run: 43 Seed: 1391398985 730067447 [ Run 43 of 100 GA/GALS ]
Beginning LAMARCKIAN GENETIC ALGORITHM (LGA), with a maximum of 2500000 energy evaluations.

Final-Value: -21.186


	FINAL GENETIC ALGORITHM DOCKED STATE
	_______________________________________________


Detailed state:  trans 54.369 78.690 10.517 quatxyzw 0.009372 0.018137 -0.010093 0.999741 center 54.495 78.699 10.493 ntor 8 5.6084 -32.7391 -108.0391 -5.7990 -131.1380 0.7238 166.0904 7.7116
State:	 54.369  78.690  10.517   0.412  0.796 -0.443  2.610      5.61  -32.74 -108.04   -5.80 -131.14    0.72  166.09    7.71

DOCKED: MODEL       43
DOCKED: USER    Run = 43
DOCKED: USER    DPF = C:/Users/georg/Desktop/fall2024/4-Computational_Biology/Assignment/executables/HEM.dpf
DOCKED: USER  
DOCKED: USER    Estimated Free Energy of Binding    =  -18.03 kcal/mol  [=(1)+(2)+(3)-(4)]
DOCKED: USER    Estimated Inhibition Constant, Ki   =   60.90 fM (femtomolar)  [Temperature = 298.15 K]
DOCKED: USER    
DOCKED: USER    (1) Final Intermolecular Energy     =  -20.42 kcal/mol
DOCKED: USER        vdW + Hbond + desolv Energy     =  -16.81 kcal/mol
DOCKED: USER        Electrostatic Energy            =   -3.60 kcal/mol
DOCKED: USER    (2) Final Total Internal Energy     =   -0.77 kcal/mol
DOCKED: USER    (3) Torsional Free Energy           =   +2.39 kcal/mol
DOCKED: USER    (4) Unbound System's Energy  [=(2)] =   -0.77 kcal/mol
DOCKED: USER    
DOCKED: USER    
DOCKED: USER    NEWDPF move HEM.pdbqt
DOCKED: USER    NEWDPF about 54.495000 78.699000 10.493000
DOCKED: USER    NEWDPF tran0 54.369371 78.689734 10.517316
DOCKED: USER    NEWDPF quaternion0 0.009372 0.018137 -0.010093 0.999741
DOCKED: USER    NEWDPF axisangle0 0.411540 0.796376 -0.443193 2.609920
DOCKED: USER    NEWDPF quat0 0.411540 0.796376 -0.443193 2.609920
DOCKED: USER    NEWDPF dihe0 5.61 -32.74 -108.04 -5.80 -131.14 0.72 166.09 7.71 
DOCKED: USER  keepresnum = 1 
DOCKED: USER  
DOCKED: REMARK  8 active torsions:
DOCKED: REMARK  status: ('A' for Active; 'I' for Inactive)
DOCKED: REMARK    1  A    between atoms: C2A_3624  and  CAA_3628 
DOCKED: REMARK    2  A    between atoms: CAA_3628  and  CBA_3629 
DOCKED: REMARK    3  A    between atoms: CBA_3629  and  CGA_3630 
DOCKED: REMARK    4  A    between atoms: C3B_3635  and  CAB_3638 
DOCKED: REMARK    5  A    between atoms: C3C_3642  and  CAC_3645 
DOCKED: REMARK    6  A    between atoms: C3D_3649  and  CAD_3652 
DOCKED: REMARK    7  A    between atoms: CAD_3652  and  CBD_3653 
DOCKED: REMARK    8  A    between atoms: CBD_3653  and  CGD_3654 
DOCKED: USER                              x       y       z     vdW  Elec       q    Type
DOCKED: USER                           _______ _______ _______ _____ _____    ______ ____
DOCKED: ROOT
DOCKED: ATOM      1  CHA HEM A1501      54.271  81.012  10.059 -0.27 +0.04    +0.038 A 
DOCKED: ATOM      2  CHB HEM A1501      55.040  78.436  14.048 -0.39 +0.02    +0.038 A 
DOCKED: ATOM      3  CHC HEM A1501      55.459  74.422  11.405 -0.40 +0.01    +0.038 A 
DOCKED: ATOM      4  CHD HEM A1501      54.623  76.990   7.415 -0.39 +0.02    +0.038 A 
DOCKED: ATOM      5  C1A HEM A1501      54.417  80.660  11.397 -0.22 +0.07    +0.079 A 
DOCKED: ATOM      6  C2A HEM A1501      54.324  81.554  12.556 -0.33 -0.00    -0.006 A 
DOCKED: ATOM      7  C3A HEM A1501      54.542  80.820  13.637 -0.38 -0.00    -0.007 A 
DOCKED: ATOM      8  C4A HEM A1501      54.760  79.479  13.186 -0.31 +0.05    +0.079 A 
DOCKED: ATOM      9  CMA HEM A1501      54.541  81.277  15.064 -0.48 +0.02    +0.032 C 
DOCKED: ATOM     10  C1B HEM A1501      55.253  77.118  13.689 -0.32 +0.03    +0.079 A 
DOCKED: ATOM     11  C2B HEM A1501      55.565  76.056  14.638 -0.40 -0.00    -0.003 A 
DOCKED: ATOM     12  C3B HEM A1501      55.697  74.932  13.887 -0.40 +0.01    +0.015 A 
DOCKED: ATOM     13  C4B HEM A1501      55.442  75.306  12.498 -0.34 +0.03    +0.083 A 
DOCKED: ATOM     14  CMB HEM A1501      55.702  76.244  16.124 -0.55 +0.01    +0.033 C 
DOCKED: ATOM     15  C1C HEM A1501      55.244  74.707  10.084 -0.38 +0.03    +0.079 A 
DOCKED: ATOM     16  C2C HEM A1501      55.193  73.741   9.022 -0.47 -0.00    -0.003 A 
DOCKED: ATOM     17  C3C HEM A1501      54.941  74.439   7.885 -0.46 +0.01    +0.015 A 
DOCKED: ATOM     18  C4C HEM A1501      54.848  75.860   8.273 -0.37 +0.04    +0.083 A 
DOCKED: ATOM     19  CMC HEM A1501      55.392  72.253   9.230 -0.54 +0.01    +0.033 C 
DOCKED: ATOM     20  C1D HEM A1501      54.505  78.358   7.764 -0.33 +0.06    +0.079 A 
DOCKED: ATOM     21  C2D HEM A1501      54.274  79.425   6.838 -0.37 -0.01    -0.007 A 
DOCKED: ATOM     22  C3D HEM A1501      54.175  80.559   7.577 -0.35 -0.01    -0.006 A 
DOCKED: ATOM     23  C4D HEM A1501      54.340  80.181   8.968 -0.27 +0.07    +0.079 A 
DOCKED: ATOM     24  CMD HEM A1501      54.162  79.312   5.370 -0.49 +0.03    +0.032 C 
DOCKED: ATOM     25  NA  HEM A1501      54.656  79.383  11.830 -0.10 -0.17    -0.246 N 
DOCKED: ATOM     26  NB  HEM A1501      55.201  76.631  12.405 -0.12 -0.11    -0.246 N 
DOCKED: ATOM     27  NC  HEM A1501      55.010  75.950   9.594 -0.16 -0.11    -0.246 N 
DOCKED: ATOM     28  ND  HEM A1501      54.535  78.838   9.043 -0.18 -0.19    -0.246 N 
DOCKED: ATOM     29 FE   HEM A1501      54.841  77.694  10.697 -0.07 +0.00    +0.000 Fe
DOCKED: ENDROOT
DOCKED: BRANCH   6  30
DOCKED: ATOM     30  CAA HEM A1501      54.035  83.014  12.562 -0.41 +0.04    +0.039 C 
DOCKED: BRANCH  30  31
DOCKED: ATOM     31  CBA HEM A1501      55.307  83.837  12.600 -0.27 +0.12    +0.102 C 
DOCKED: BRANCH  31  32
DOCKED: ATOM     32  CGA HEM A1501      56.378  83.367  11.654 -0.14 +0.20    +0.186 C 
DOCKED: ATOM     33  O1A HEM A1501      56.222  83.578  10.429 +0.07 -0.94    -0.647 OA
DOCKED: ATOM     34  O2A HEM A1501      57.397  82.829  12.132 +0.06 -0.45    -0.647 OA
DOCKED: ENDBRANCH  31  32
DOCKED: ENDBRANCH  30  31
DOCKED: ENDBRANCH   6  30
DOCKED: BRANCH  22  35
DOCKED: ATOM     35  CAD HEM A1501      53.939  81.905   7.004 -0.44 +0.05    +0.039 C 
DOCKED: BRANCH  35  36
DOCKED: ATOM     36  CBD HEM A1501      52.451  82.249   6.947 -0.56 +0.15    +0.102 C 
DOCKED: BRANCH  36  37
DOCKED: ATOM     37  CGD HEM A1501      52.178  83.595   6.302 -0.64 +0.35    +0.186 C 
DOCKED: ATOM     38  O1D HEM A1501      51.204  83.564   5.518 -1.03 -1.30    -0.647 OA
DOCKED: ATOM     39  O2D HEM A1501      52.867  84.671   6.588 -1.12 -1.78    -0.647 OA
DOCKED: ENDBRANCH  36  37
DOCKED: ENDBRANCH  35  36
DOCKED: ENDBRANCH  22  35
DOCKED: BRANCH  17  40
DOCKED: ATOM     40  CAC HEM A1501      54.793  73.929   6.517 -0.60 +0.00    +0.001 C 
DOCKED: ATOM     41  CBC HEM A1501      53.749  74.122   5.696 -0.67 +0.00    +0.000 C 
DOCKED: ENDBRANCH  17  40
DOCKED: BRANCH  12  42
DOCKED: ATOM     42  CAB HEM A1501      56.022  73.538  14.267 -0.58 +0.00    +0.001 C 
DOCKED: ATOM     43  CBB HEM A1501      57.060  73.050  14.918 -0.65 +0.00    +0.000 C 
DOCKED: ENDBRANCH  12  42
DOCKED: TORSDOF 8
DOCKED: TER
DOCKED: ENDMDL
________________________________________________________________________________


	BEGINNING GENETIC ALGORITHM DOCKING 44 of 100
Run: 44 Seed: 180552393 2090094376 [ Run 44 of 100 GA/GALS ]
Beginning LAMARCKIAN GENETIC ALGORITHM (LGA), with a maximum of 2500000 energy evaluations.

Final-Value: -23.112


	FINAL GENETIC ALGORITHM DOCKED STATE
	_______________________________________________


Detailed state:  trans 54.948 79.129 10.755 quatxyzw -0.173942 0.969308 -0.170730 -0.032213 center 54.495 78.699 10.493 ntor 8 -173.9272 -28.0284 -166.6782 -129.1948 -20.4498 -29.6110 132.7749 179.9159
State:	 54.948  79.129  10.755  -0.174  0.970 -0.171 -176.308   -173.93  -28.03 -166.68 -129.19  -20.45  -29.61  132.77  179.92

DOCKED: MODEL       44
DOCKED: USER    Run = 44
DOCKED: USER    DPF = C:/Users/georg/Desktop/fall2024/4-Computational_Biology/Assignment/executables/HEM.dpf
DOCKED: USER  
DOCKED: USER    Estimated Free Energy of Binding    =  -20.25 kcal/mol  [=(1)+(2)+(3)-(4)]
DOCKED: USER    Estimated Inhibition Constant, Ki   =    1.44 fM (femtomolar)  [Temperature = 298.15 K]
DOCKED: USER    
DOCKED: USER    (1) Final Intermolecular Energy     =  -22.64 kcal/mol
DOCKED: USER        vdW + Hbond + desolv Energy     =  -18.48 kcal/mol
DOCKED: USER        Electrostatic Energy            =   -4.15 kcal/mol
DOCKED: USER    (2) Final Total Internal Energy     =   -0.48 kcal/mol
DOCKED: USER    (3) Torsional Free Energy           =   +2.39 kcal/mol
DOCKED: USER    (4) Unbound System's Energy  [=(2)] =   -0.48 kcal/mol
DOCKED: USER    
DOCKED: USER    
DOCKED: USER    NEWDPF move HEM.pdbqt
DOCKED: USER    NEWDPF about 54.495000 78.699000 10.493000
DOCKED: USER    NEWDPF tran0 54.948208 79.128694 10.754644
DOCKED: USER    NEWDPF quaternion0 -0.173942 0.969308 -0.170730 -0.032213
DOCKED: USER    NEWDPF axisangle0 -0.174033 0.969811 -0.170819 -176.307968
DOCKED: USER    NEWDPF quat0 -0.174033 0.969811 -0.170819 -176.307968
DOCKED: USER    NEWDPF dihe0 -173.93 -28.03 -166.68 -129.19 -20.45 -29.61 132.77 179.92 
DOCKED: USER  keepresnum = 1 
DOCKED: USER  
DOCKED: REMARK  8 active torsions:
DOCKED: REMARK  status: ('A' for Active; 'I' for Inactive)
DOCKED: REMARK    1  A    between atoms: C2A_3624  and  CAA_3628 
DOCKED: REMARK    2  A    between atoms: CAA_3628  and  CBA_3629 
DOCKED: REMARK    3  A    between atoms: CBA_3629  and  CGA_3630 
DOCKED: REMARK    4  A    between atoms: C3B_3635  and  CAB_3638 
DOCKED: REMARK    5  A    between atoms: C3C_3642  and  CAC_3645 
DOCKED: REMARK    6  A    between atoms: C3D_3649  and  CAD_3652 
DOCKED: REMARK    7  A    between atoms: CAD_3652  and  CBD_3653 
DOCKED: REMARK    8  A    between atoms: CBD_3653  and  CGD_3654 
DOCKED: USER                              x       y       z     vdW  Elec       q    Type
DOCKED: USER                           _______ _______ _______ _____ _____    ______ ____
DOCKED: ROOT
DOCKED: ATOM      1  CHA HEM A1501      54.200  81.339  10.344 -0.29 +0.04    +0.038 A 
DOCKED: ATOM      2  CHB HEM A1501      54.741  77.440   7.579 -0.36 +0.03    +0.038 A 
DOCKED: ATOM      3  CHC HEM A1501      55.478  74.730  11.502 -0.40 +0.01    +0.038 A 
DOCKED: ATOM      4  CHD HEM A1501      55.002  78.646  14.268 -0.39 +0.02    +0.038 A 
DOCKED: ATOM      5  C1A HEM A1501      54.310  80.515   9.228 -0.26 +0.08    +0.079 A 
DOCKED: ATOM      6  C2A HEM A1501      54.200  80.919   7.823 -0.34 -0.01    -0.006 A 
DOCKED: ATOM      7  C3A HEM A1501      54.350  79.827   7.087 -0.35 -0.01    -0.007 A 
DOCKED: ATOM      8  C4A HEM A1501      54.564  78.744   7.997 -0.30 +0.06    +0.079 A 
DOCKED: ATOM      9  CMA HEM A1501      54.328  79.727   5.592 -0.48 +0.03    +0.032 C 
DOCKED: ATOM     10  C1B HEM A1501      54.960  76.346   8.396 -0.33 +0.04    +0.079 A 
DOCKED: ATOM     11  C2B HEM A1501      55.122  74.983   7.905 -0.46 -0.00    -0.003 A 
DOCKED: ATOM     12  C3B HEM A1501      55.314  74.222   9.014 -0.45 +0.01    +0.015 A 
DOCKED: ATOM     13  C4B HEM A1501      55.293  75.121  10.165 -0.35 +0.03    +0.083 A 
DOCKED: ATOM     14  CMB HEM A1501      55.069  74.579   6.457 -0.58 +0.02    +0.033 C 
DOCKED: ATOM     15  C1C HEM A1501      55.456  75.514  12.623 -0.33 +0.03    +0.079 A 
DOCKED: ATOM     16  C2C HEM A1501      55.736  75.064  13.959 -0.40 -0.00    -0.003 A 
DOCKED: ATOM     17  C3C HEM A1501      55.624  76.156  14.758 -0.40 +0.01    +0.015 A 
DOCKED: ATOM     18  C4C HEM A1501      55.260  77.287  13.882 -0.34 +0.03    +0.083 A 
DOCKED: ATOM     19  CMC HEM A1501      56.080  73.630  14.307 -0.55 +0.01    +0.033 C 
DOCKED: ATOM     20  C1D HEM A1501      54.676  79.753  13.446 -0.34 +0.05    +0.079 A 
DOCKED: ATOM     21  C2D HEM A1501      54.439  81.084  13.917 -0.41 -0.00    -0.007 A 
DOCKED: ATOM     22  C3D HEM A1501      54.212  81.846  12.817 -0.35 -0.00    -0.006 A 
DOCKED: ATOM     23  C4D HEM A1501      54.318  80.974  11.663 -0.24 +0.07    +0.079 A 
DOCKED: ATOM     24  CMD HEM A1501      54.444  81.538  15.323 -0.48 +0.01    +0.032 C 
DOCKED: ATOM     25  NA  HEM A1501      54.566  79.171   9.292 -0.17 -0.20    -0.246 N 
DOCKED: ATOM     26  NB  HEM A1501      55.055  76.389   9.766 -0.00 -0.12    -0.246 N 
DOCKED: ATOM     27  NC  HEM A1501      55.202  76.846  12.624 -0.15 -0.11    -0.246 N 
DOCKED: ATOM     28  ND  HEM A1501      54.604  79.713  12.082 -0.14 -0.17    -0.246 N 
DOCKED: ATOM     29 FE   HEM A1501      54.866  78.035  10.963 -0.07 +0.00    +0.000 Fe
DOCKED: ENDROOT
DOCKED: BRANCH   6  30
DOCKED: ATOM     30  CAA HEM A1501      53.970  82.286   7.281 -0.42 +0.06    +0.039 C 
DOCKED: BRANCH  30  31
DOCKED: ATOM     31  CBA HEM A1501      52.821  82.311   6.292 -0.57 +0.15    +0.102 C 
DOCKED: BRANCH  31  32
DOCKED: ATOM     32  CGA HEM A1501      52.159  83.654   6.146 -0.64 +0.35    +0.186 C 
DOCKED: ATOM     33  O1A HEM A1501      52.748  84.660   6.603 -1.09 -1.75    -0.647 OA
DOCKED: ATOM     34  O2A HEM A1501      51.072  83.715   5.535 -1.01 -1.35    -0.647 OA
DOCKED: ENDBRANCH  31  32
DOCKED: ENDBRANCH  30  31
DOCKED: ENDBRANCH   6  30
DOCKED: BRANCH  22  35
DOCKED: ATOM     35  CAD HEM A1501      53.917  83.298  12.859 -0.43 +0.04    +0.039 C 
DOCKED: BRANCH  35  36
DOCKED: ATOM     36  CBD HEM A1501      52.414  83.576  12.826 -0.49 +0.12    +0.102 C 
DOCKED: BRANCH  36  37
DOCKED: ATOM     37  CGD HEM A1501      52.038  84.878  13.508 -0.50 +0.26    +0.186 C 
DOCKED: ATOM     38  O1D HEM A1501      53.027  85.613  13.721 -0.43 -1.11    -0.647 OA
DOCKED: ATOM     39  O2D HEM A1501      50.799  85.200  13.788 -0.85 -0.87    -0.647 OA
DOCKED: ENDBRANCH  36  37
DOCKED: ENDBRANCH  35  36
DOCKED: ENDBRANCH  22  35
DOCKED: BRANCH  17  40
DOCKED: ATOM     40  CAC HEM A1501      55.809  76.243  16.212 -0.58 +0.00    +0.001 C 
DOCKED: ATOM     41  CBC HEM A1501      55.186  75.509  17.146 -0.66 +0.00    +0.000 C 
DOCKED: ENDBRANCH  17  40
DOCKED: BRANCH  12  42
DOCKED: ATOM     42  CAB HEM A1501      55.524  72.765   9.172 -0.54 +0.00    +0.001 C 
DOCKED: ATOM     43  CBB HEM A1501      54.827  71.746   8.711 -0.55 +0.00    +0.000 C 
DOCKED: ENDBRANCH  12  42
DOCKED: TORSDOF 8
DOCKED: TER
DOCKED: ENDMDL
________________________________________________________________________________


	BEGINNING GENETIC ALGORITHM DOCKING 45 of 100
Run: 45 Seed: 1108089551 1571420650 [ Run 45 of 100 GA/GALS ]
Beginning LAMARCKIAN GENETIC ALGORITHM (LGA), with a maximum of 2500000 energy evaluations.

Final-Value: -23.178


	FINAL GENETIC ALGORITHM DOCKED STATE
	_______________________________________________


Detailed state:  trans 54.921 78.813 10.640 quatxyzw -0.178646 0.975233 -0.130383 -0.002694 center 54.495 78.699 10.493 ntor 8 120.9194 -106.3782 -175.6350 -95.8434 -0.8098 -14.7682 132.8923 162.5167
State:	 54.921  78.813  10.640  -0.179  0.975 -0.130 -179.691    120.92 -106.38 -175.64  -95.84   -0.81  -14.77  132.89  162.52

DOCKED: MODEL       45
DOCKED: USER    Run = 45
DOCKED: USER    DPF = C:/Users/georg/Desktop/fall2024/4-Computational_Biology/Assignment/executables/HEM.dpf
DOCKED: USER  
DOCKED: USER    Estimated Free Energy of Binding    =  -20.30 kcal/mol  [=(1)+(2)+(3)-(4)]
DOCKED: USER    Estimated Inhibition Constant, Ki   =    1.31 fM (femtomolar)  [Temperature = 298.15 K]
DOCKED: USER    
DOCKED: USER    (1) Final Intermolecular Energy     =  -22.69 kcal/mol
DOCKED: USER        vdW + Hbond + desolv Energy     =  -18.34 kcal/mol
DOCKED: USER        Electrostatic Energy            =   -4.35 kcal/mol
DOCKED: USER    (2) Final Total Internal Energy     =   -0.49 kcal/mol
DOCKED: USER    (3) Torsional Free Energy           =   +2.39 kcal/mol
DOCKED: USER    (4) Unbound System's Energy  [=(2)] =   -0.49 kcal/mol
DOCKED: USER    
DOCKED: USER    
DOCKED: USER    NEWDPF move HEM.pdbqt
DOCKED: USER    NEWDPF about 54.495000 78.699000 10.493000
DOCKED: USER    NEWDPF tran0 54.920916 78.812612 10.639642
DOCKED: USER    NEWDPF quaternion0 -0.178646 0.975233 -0.130383 -0.002694
DOCKED: USER    NEWDPF axisangle0 -0.178647 0.975236 -0.130383 -179.691285
DOCKED: USER    NEWDPF quat0 -0.178647 0.975236 -0.130383 -179.691285
DOCKED: USER    NEWDPF dihe0 120.92 -106.38 -175.64 -95.84 -0.81 -14.77 132.89 162.52 
DOCKED: USER  keepresnum = 1 
DOCKED: USER  
DOCKED: REMARK  8 active torsions:
DOCKED: REMARK  status: ('A' for Active; 'I' for Inactive)
DOCKED: REMARK    1  A    between atoms: C2A_3624  and  CAA_3628 
DOCKED: REMARK    2  A    between atoms: CAA_3628  and  CBA_3629 
DOCKED: REMARK    3  A    between atoms: CBA_3629  and  CGA_3630 
DOCKED: REMARK    4  A    between atoms: C3B_3635  and  CAB_3638 
DOCKED: REMARK    5  A    between atoms: C3C_3642  and  CAC_3645 
DOCKED: REMARK    6  A    between atoms: C3D_3649  and  CAD_3652 
DOCKED: REMARK    7  A    between atoms: CAD_3652  and  CBD_3653 
DOCKED: REMARK    8  A    between atoms: CBD_3653  and  CGD_3654 
DOCKED: USER                              x       y       z     vdW  Elec       q    Type
DOCKED: USER                           _______ _______ _______ _____ _____    ______ ____
DOCKED: ROOT
DOCKED: ATOM      1  CHA HEM A1501      54.151  81.044  10.440 -0.26 +0.04    +0.038 A 
DOCKED: ATOM      2  CHB HEM A1501      54.477  77.348   7.378 -0.40 +0.03    +0.038 A 
DOCKED: ATOM      3  CHC HEM A1501      55.491  74.373  11.038 -0.41 +0.01    +0.038 A 
DOCKED: ATOM      4  CHD HEM A1501      55.230  78.087  14.097 -0.39 +0.02    +0.038 A 
DOCKED: ATOM      5  C1A HEM A1501      54.177  80.300   9.264 -0.26 +0.08    +0.079 A 
DOCKED: ATOM      6  C2A HEM A1501      53.965  80.801   7.902 -0.37 -0.01    -0.006 A 
DOCKED: ATOM      7  C3A HEM A1501      54.058  79.764   7.083 -0.37 -0.01    -0.007 A 
DOCKED: ATOM      8  C4A HEM A1501      54.334  78.620   7.898 -0.33 +0.06    +0.079 A 
DOCKED: ATOM      9  CMA HEM A1501      53.926  79.767   5.590 -0.47 +0.03    +0.032 C 
DOCKED: ATOM     10  C1B HEM A1501      54.752  76.201   8.098 -0.37 +0.05    +0.079 A 
DOCKED: ATOM     11  C2B HEM A1501      54.874  74.875   7.503 -0.48 -0.00    -0.003 A 
DOCKED: ATOM     12  C3B HEM A1501      55.144  74.040   8.540 -0.45 +0.01    +0.015 A 
DOCKED: ATOM     13  C4B HEM A1501      55.210  74.857   9.749 -0.38 +0.03    +0.083 A 
DOCKED: ATOM     14  CMB HEM A1501      54.714  74.573   6.038 -0.60 +0.02    +0.033 C 
DOCKED: ATOM     15  C1C HEM A1501      55.553  75.078  12.210 -0.35 +0.03    +0.079 A 
DOCKED: ATOM     16  C2C HEM A1501      55.929  74.537  13.487 -0.43 -0.00    -0.003 A 
DOCKED: ATOM     17  C3C HEM A1501      55.879  75.570  14.367 -0.40 +0.01    +0.015 A 
DOCKED: ATOM     18  C4C HEM A1501      55.456  76.758  13.600 -0.31 +0.03    +0.083 A 
DOCKED: ATOM     19  CMC HEM A1501      56.293  73.083  13.709 -0.54 +0.01    +0.033 C 
DOCKED: ATOM     20  C1D HEM A1501      54.849  79.248  13.381 -0.33 +0.04    +0.079 A 
DOCKED: ATOM     21  C2D HEM A1501      54.650  80.542  13.959 -0.40 -0.00    -0.007 A 
DOCKED: ATOM     22  C3D HEM A1501      54.345  81.378  12.934 -0.34 -0.00    -0.006 A 
DOCKED: ATOM     23  C4D HEM A1501      54.365  80.589  11.717 -0.22 +0.06    +0.079 A 
DOCKED: ATOM     24  CMD HEM A1501      54.759  80.897  15.389 -0.38 +0.01    +0.032 C 
DOCKED: ATOM     25  NA  HEM A1501      54.433  78.955   9.216 -0.18 -0.20    -0.246 N 
DOCKED: ATOM     26  NB  HEM A1501      54.947  76.148   9.458 -0.13 -0.12    -0.246 N 
DOCKED: ATOM     27  NC  HEM A1501      55.304  76.406  12.322 -0.15 -0.10    -0.246 N 
DOCKED: ATOM     28  ND  HEM A1501      54.677  79.302  12.026 -0.10 -0.17    -0.246 N 
DOCKED: ATOM     29 FE   HEM A1501      54.851  77.707  10.777 -0.07 +0.00    +0.000 Fe
DOCKED: ENDROOT
DOCKED: BRANCH   6  30
DOCKED: ATOM     30  CAA HEM A1501      53.701  82.202   7.475 -0.44 +0.06    +0.039 C 
DOCKED: BRANCH  30  31
DOCKED: ATOM     31  CBA HEM A1501      52.481  82.294   6.579 -0.58 +0.15    +0.102 C 
DOCKED: BRANCH  31  32
DOCKED: ATOM     32  CGA HEM A1501      52.092  83.698   6.204 -0.63 +0.36    +0.186 C 
DOCKED: ATOM     33  O1A HEM A1501      52.841  84.637   6.558 -1.11 -1.75    -0.647 OA
DOCKED: ATOM     34  O2A HEM A1501      51.064  83.864   5.517 -0.99 -1.36    -0.647 OA
DOCKED: ENDBRANCH  31  32
DOCKED: ENDBRANCH  30  31
DOCKED: ENDBRANCH   6  30
DOCKED: BRANCH  22  35
DOCKED: ATOM     35  CAD HEM A1501      54.058  82.823  13.099 -0.41 +0.04    +0.039 C 
DOCKED: BRANCH  35  36
DOCKED: ATOM     36  CBD HEM A1501      52.603  83.157  12.773 -0.50 +0.11    +0.102 C 
DOCKED: BRANCH  36  37
DOCKED: ATOM     37  CGD HEM A1501      52.200  84.549  13.221 -0.51 +0.25    +0.186 C 
DOCKED: ATOM     38  O1D HEM A1501      53.033  85.421  12.889 -0.55 -1.34    -0.647 OA
DOCKED: ATOM     39  O2D HEM A1501      51.073  84.796  13.842 -0.45 -0.82    -0.647 OA
DOCKED: ENDBRANCH  36  37
DOCKED: ENDBRANCH  35  36
DOCKED: ENDBRANCH  22  35
DOCKED: BRANCH  17  40
DOCKED: ATOM     40  CAC HEM A1501      56.170  75.556  15.805 -0.55 +0.00    +0.001 C 
DOCKED: ATOM     41  CBC HEM A1501      55.327  75.877  16.799 -0.63 +0.00    +0.000 C 
DOCKED: ENDBRANCH  17  40
DOCKED: BRANCH  12  42
DOCKED: ATOM     42  CAB HEM A1501      55.360  72.576   8.580 -0.54 +0.00    +0.001 C 
DOCKED: ATOM     43  CBB HEM A1501      54.822  71.653   9.353 -0.57 +0.00    +0.000 C 
DOCKED: ENDBRANCH  12  42
DOCKED: TORSDOF 8
DOCKED: TER
DOCKED: ENDMDL
________________________________________________________________________________


	BEGINNING GENETIC ALGORITHM DOCKING 46 of 100
Run: 46 Seed: 754046293 1338494013 [ Run 46 of 100 GA/GALS ]
Beginning LAMARCKIAN GENETIC ALGORITHM (LGA), with a maximum of 2500000 energy evaluations.

Final-Value: -23.440


	FINAL GENETIC ALGORITHM DOCKED STATE
	_______________________________________________


Detailed state:  trans 54.953 78.674 10.362 quatxyzw -0.151424 0.974990 -0.162613 0.004689 center 54.495 78.699 10.493 ntor 8 124.4600 162.7806 123.8146 -119.0085 13.7841 -0.4517 -179.4541 -172.6086
State:	 54.953  78.674  10.362  -0.151  0.975 -0.163 179.463    124.46  162.78  123.81 -119.01   13.78   -0.45 -179.45 -172.61

DOCKED: MODEL       46
DOCKED: USER    Run = 46
DOCKED: USER    DPF = C:/Users/georg/Desktop/fall2024/4-Computational_Biology/Assignment/executables/HEM.dpf
DOCKED: USER  
DOCKED: USER    Estimated Free Energy of Binding    =  -20.51 kcal/mol  [=(1)+(2)+(3)-(4)]
DOCKED: USER    Estimated Inhibition Constant, Ki   =  924.82 aM (attomolar)  [Temperature = 298.15 K]
DOCKED: USER    
DOCKED: USER    (1) Final Intermolecular Energy     =  -22.90 kcal/mol
DOCKED: USER        vdW + Hbond + desolv Energy     =  -18.21 kcal/mol
DOCKED: USER        Electrostatic Energy            =   -4.69 kcal/mol
DOCKED: USER    (2) Final Total Internal Energy     =   -0.54 kcal/mol
DOCKED: USER    (3) Torsional Free Energy           =   +2.39 kcal/mol
DOCKED: USER    (4) Unbound System's Energy  [=(2)] =   -0.54 kcal/mol
DOCKED: USER    
DOCKED: USER    
DOCKED: USER    NEWDPF move HEM.pdbqt
DOCKED: USER    NEWDPF about 54.495000 78.699000 10.493000
DOCKED: USER    NEWDPF tran0 54.953107 78.674158 10.361819
DOCKED: USER    NEWDPF quaternion0 -0.151424 0.974990 -0.162613 0.004689
DOCKED: USER    NEWDPF axisangle0 -0.151426 0.975001 -0.162615 179.462683
DOCKED: USER    NEWDPF quat0 -0.151426 0.975001 -0.162615 179.462683
DOCKED: USER    NEWDPF dihe0 124.46 162.78 123.81 -119.01 13.78 -0.45 -179.45 -172.61 
DOCKED: USER  keepresnum = 1 
DOCKED: USER  
DOCKED: REMARK  8 active torsions:
DOCKED: REMARK  status: ('A' for Active; 'I' for Inactive)
DOCKED: REMARK    1  A    between atoms: C2A_3624  and  CAA_3628 
DOCKED: REMARK    2  A    between atoms: CAA_3628  and  CBA_3629 
DOCKED: REMARK    3  A    between atoms: CBA_3629  and  CGA_3630 
DOCKED: REMARK    4  A    between atoms: C3B_3635  and  CAB_3638 
DOCKED: REMARK    5  A    between atoms: C3C_3642  and  CAC_3645 
DOCKED: REMARK    6  A    between atoms: C3D_3649  and  CAD_3652 
DOCKED: REMARK    7  A    between atoms: CAD_3652  and  CBD_3653 
DOCKED: REMARK    8  A    between atoms: CBD_3653  and  CGD_3654 
DOCKED: USER                              x       y       z     vdW  Elec       q    Type
DOCKED: USER                           _______ _______ _______ _____ _____    ______ ____
DOCKED: ROOT
DOCKED: ATOM      1  CHA HEM A1501      54.308  80.927  10.012 -0.27 +0.04    +0.038 A 
DOCKED: ATOM      2  CHB HEM A1501      54.437  77.026   7.200 -0.42 +0.03    +0.038 A 
DOCKED: ATOM      3  CHC HEM A1501      55.276  74.246  11.053 -0.41 +0.01    +0.038 A 
DOCKED: ATOM      4  CHD HEM A1501      55.213  78.160  13.861 -0.37 +0.02    +0.038 A 
DOCKED: ATOM      5  C1A HEM A1501      54.296  80.107   8.888 -0.27 +0.07    +0.079 A 
DOCKED: ATOM      6  C2A HEM A1501      54.115  80.529   7.495 -0.36 -0.01    -0.006 A 
DOCKED: ATOM      7  C3A HEM A1501      54.152  79.436   6.746 -0.38 -0.01    -0.007 A 
DOCKED: ATOM      8  C4A HEM A1501      54.363  78.335   7.635 -0.34 +0.06    +0.079 A 
DOCKED: ATOM      9  CMA HEM A1501      54.025  79.349   5.255 -0.48 +0.03    +0.032 C 
DOCKED: ATOM     10  C1B HEM A1501      54.646  75.915   7.995 -0.39 +0.04    +0.079 A 
DOCKED: ATOM     11  C2B HEM A1501      54.696  74.549   7.488 -0.48 -0.00    -0.003 A 
DOCKED: ATOM     12  C3B HEM A1501      54.917  73.769   8.579 -0.46 +0.01    +0.015 A 
DOCKED: ATOM     13  C4B HEM A1501      55.025  74.658   9.732 -0.38 +0.03    +0.083 A 
DOCKED: ATOM     14  CMB HEM A1501      54.523  74.160   6.046 -0.60 +0.02    +0.033 C 
DOCKED: ATOM     15  C1C HEM A1501      55.374  75.021  12.176 -0.35 +0.03    +0.079 A 
DOCKED: ATOM     16  C2C HEM A1501      55.717  74.545  13.488 -0.43 -0.00    -0.003 A 
DOCKED: ATOM     17  C3C HEM A1501      55.722  75.635  14.298 -0.38 +0.01    +0.015 A 
DOCKED: ATOM     18  C4C HEM A1501      55.367  76.792  13.454 -0.31 +0.03    +0.083 A 
DOCKED: ATOM     19  CMC HEM A1501      55.999  73.091  13.806 -0.54 +0.01    +0.033 C 
DOCKED: ATOM     20  C1D HEM A1501      54.898  79.291  13.068 -0.29 +0.05    +0.079 A 
DOCKED: ATOM     21  C2D HEM A1501      54.770  80.629  13.560 -0.36 -0.00    -0.007 A 
DOCKED: ATOM     22  C3D HEM A1501      54.514  81.412  12.480 -0.30 -0.00    -0.006 A 
DOCKED: ATOM     23  C4D HEM A1501      54.493  80.545  11.318 -0.21 +0.07    +0.079 A 
DOCKED: ATOM     24  CMD HEM A1501      54.895  81.070  14.964 -0.45 +0.01    +0.032 C 
DOCKED: ATOM     25  NA  HEM A1501      54.477  78.750   8.929 -0.20 -0.19    -0.246 N 
DOCKED: ATOM     26  NB  HEM A1501      54.835  75.941   9.356 -0.18 -0.12    -0.246 N 
DOCKED: ATOM     27  NC  HEM A1501      55.199  76.366  12.200 -0.11 -0.10    -0.246 N 
DOCKED: ATOM     28  ND  HEM A1501      54.733  79.266  11.712 -0.09 -0.17    -0.246 N 
DOCKED: ATOM     29 FE   HEM A1501      54.822  77.586  10.570 -0.07 +0.00    +0.000 Fe
DOCKED: ENDROOT
DOCKED: BRANCH   6  30
DOCKED: ATOM     30  CAA HEM A1501      53.930  81.911   6.976 -0.44 +0.05    +0.039 C 
DOCKED: BRANCH  30  31
DOCKED: ATOM     31  CBA HEM A1501      52.494  82.377   7.122 -0.56 +0.16    +0.102 C 
DOCKED: BRANCH  31  32
DOCKED: ATOM     32  CGA HEM A1501      52.185  83.666   6.412 -0.62 +0.36    +0.186 C 
DOCKED: ATOM     33  O1A HEM A1501      52.887  84.670   6.671 -1.10 -1.81    -0.647 OA
DOCKED: ATOM     34  O2A HEM A1501      51.273  83.670   5.560 -1.02 -1.29    -0.647 OA
DOCKED: ENDBRANCH  31  32
DOCKED: ENDBRANCH  30  31
DOCKED: ENDBRANCH   6  30
DOCKED: BRANCH  22  35
DOCKED: ATOM     35  CAD HEM A1501      54.307  82.878  12.549 -0.37 +0.04    +0.039 C 
DOCKED: BRANCH  35  36
DOCKED: ATOM     36  CBD HEM A1501      52.843  83.237  12.802 -0.50 +0.11    +0.102 C 
DOCKED: BRANCH  36  37
DOCKED: ATOM     37  CGD HEM A1501      52.598  84.734  12.838 -0.41 +0.29    +0.186 C 
DOCKED: ATOM     38  O1D HEM A1501      53.462  85.378  12.204 -0.48 -1.57    -0.647 OA
DOCKED: ATOM     39  O2D HEM A1501      51.559  85.268  13.432 -0.52 -0.98    -0.647 OA
DOCKED: ENDBRANCH  36  37
DOCKED: ENDBRANCH  35  36
DOCKED: ENDBRANCH  22  35
DOCKED: BRANCH  17  40
DOCKED: ATOM     40  CAC HEM A1501      56.008  75.699  15.736 -0.54 +0.00    +0.001 C 
DOCKED: ATOM     41  CBC HEM A1501      55.160  76.067  16.709 -0.61 +0.00    +0.000 C 
DOCKED: ENDBRANCH  17  40
DOCKED: BRANCH  12  42
DOCKED: ATOM     42  CAB HEM A1501      55.053  72.301   8.717 -0.57 +0.00    +0.001 C 
DOCKED: ATOM     43  CBB HEM A1501      55.883  71.584   9.447 -0.57 +0.00    +0.000 C 
DOCKED: ENDBRANCH  12  42
DOCKED: TORSDOF 8
DOCKED: TER
DOCKED: ENDMDL
________________________________________________________________________________


	BEGINNING GENETIC ALGORITHM DOCKING 47 of 100
Run: 47 Seed: 330120412 1419431129 [ Run 47 of 100 GA/GALS ]
Beginning LAMARCKIAN GENETIC ALGORITHM (LGA), with a maximum of 2500000 energy evaluations.

Final-Value: -23.175


	FINAL GENETIC ALGORITHM DOCKED STATE
	_______________________________________________


Detailed state:  trans 54.913 78.992 10.375 quatxyzw 0.167195 -0.966610 0.194104 0.005943 center 54.495 78.699 10.493 ntor 8 179.1337 38.2566 -39.8148 -137.2971 1.7594 -39.8139 178.1518 -179.2742
State:	 54.913  78.992  10.375   0.167 -0.967  0.194 179.319    179.13   38.26  -39.81 -137.30    1.76  -39.81  178.15 -179.27

DOCKED: MODEL       47
DOCKED: USER    Run = 47
DOCKED: USER    DPF = C:/Users/georg/Desktop/fall2024/4-Computational_Biology/Assignment/executables/HEM.dpf
DOCKED: USER  
DOCKED: USER    Estimated Free Energy of Binding    =  -20.20 kcal/mol  [=(1)+(2)+(3)-(4)]
DOCKED: USER    Estimated Inhibition Constant, Ki   =    1.57 fM (femtomolar)  [Temperature = 298.15 K]
DOCKED: USER    
DOCKED: USER    (1) Final Intermolecular Energy     =  -22.58 kcal/mol
DOCKED: USER        vdW + Hbond + desolv Energy     =  -18.43 kcal/mol
DOCKED: USER        Electrostatic Energy            =   -4.15 kcal/mol
DOCKED: USER    (2) Final Total Internal Energy     =   -0.59 kcal/mol
DOCKED: USER    (3) Torsional Free Energy           =   +2.39 kcal/mol
DOCKED: USER    (4) Unbound System's Energy  [=(2)] =   -0.59 kcal/mol
DOCKED: USER    
DOCKED: USER    
DOCKED: USER    NEWDPF move HEM.pdbqt
DOCKED: USER    NEWDPF about 54.495000 78.699000 10.493000
DOCKED: USER    NEWDPF tran0 54.913009 78.991555 10.375029
DOCKED: USER    NEWDPF quaternion0 0.167195 -0.966610 0.194104 0.005943
DOCKED: USER    NEWDPF axisangle0 0.167198 -0.966627 0.194107 179.318950
DOCKED: USER    NEWDPF quat0 0.167198 -0.966627 0.194107 179.318950
DOCKED: USER    NEWDPF dihe0 179.13 38.26 -39.81 -137.30 1.76 -39.81 178.15 -179.27 
DOCKED: USER  keepresnum = 1 
DOCKED: USER  
DOCKED: REMARK  8 active torsions:
DOCKED: REMARK  status: ('A' for Active; 'I' for Inactive)
DOCKED: REMARK    1  A    between atoms: C2A_3624  and  CAA_3628 
DOCKED: REMARK    2  A    between atoms: CAA_3628  and  CBA_3629 
DOCKED: REMARK    3  A    between atoms: CBA_3629  and  CGA_3630 
DOCKED: REMARK    4  A    between atoms: C3B_3635  and  CAB_3638 
DOCKED: REMARK    5  A    between atoms: C3C_3642  and  CAC_3645 
DOCKED: REMARK    6  A    between atoms: C3D_3649  and  CAD_3652 
DOCKED: REMARK    7  A    between atoms: CAD_3652  and  CBD_3653 
DOCKED: REMARK    8  A    between atoms: CBD_3653  and  CGD_3654 
DOCKED: USER                              x       y       z     vdW  Elec       q    Type
DOCKED: USER                           _______ _______ _______ _____ _____    ______ ____
DOCKED: ROOT
DOCKED: ATOM      1  CHA HEM A1501      54.196  81.193   9.873 -0.29 +0.04    +0.038 A 
DOCKED: ATOM      2  CHB HEM A1501      54.540  77.138   7.308 -0.40 +0.03    +0.038 A 
DOCKED: ATOM      3  CHC HEM A1501      55.378  74.628  11.343 -0.40 +0.01    +0.038 A 
DOCKED: ATOM      4  CHD HEM A1501      55.100  78.700  13.904 -0.37 +0.02    +0.038 A 
DOCKED: ATOM      5  C1A HEM A1501      54.243  80.307   8.801 -0.28 +0.08    +0.079 A 
DOCKED: ATOM      6  C2A HEM A1501      54.084  80.637   7.381 -0.36 -0.01    -0.006 A 
DOCKED: ATOM      7  C3A HEM A1501      54.180  79.504   6.701 -0.38 -0.01    -0.007 A 
DOCKED: ATOM      8  C4A HEM A1501      54.408  78.467   7.661 -0.33 +0.06    +0.079 A 
DOCKED: ATOM      9  CMA HEM A1501      54.095  79.322   5.216 -0.50 +0.02    +0.032 C 
DOCKED: ATOM     10  C1B HEM A1501      54.769  76.085   8.175 -0.37 +0.04    +0.079 A 
DOCKED: ATOM     11  C2B HEM A1501      54.881  74.694   7.754 -0.47 -0.00    -0.003 A 
DOCKED: ATOM     12  C3B HEM A1501      55.102  73.990   8.896 -0.46 +0.01    +0.015 A 
DOCKED: ATOM     13  C4B HEM A1501      55.147  74.951   9.994 -0.36 +0.03    +0.083 A 
DOCKED: ATOM     14  CMB HEM A1501      54.760  74.213   6.334 -0.58 +0.02    +0.033 C 
DOCKED: ATOM     15  C1C HEM A1501      55.419  75.473  12.419 -0.33 +0.03    +0.079 A 
DOCKED: ATOM     16  C2C HEM A1501      55.744  75.090  13.765 -0.41 -0.00    -0.003 A 
DOCKED: ATOM     17  C3C HEM A1501      55.688  76.226  14.507 -0.39 +0.01    +0.015 A 
DOCKED: ATOM     18  C4C HEM A1501      55.313  77.316  13.585 -0.32 +0.04    +0.083 A 
DOCKED: ATOM     19  CMC HEM A1501      56.071  73.669  14.179 -0.54 +0.01    +0.033 C 
DOCKED: ATOM     20  C1D HEM A1501      54.765  79.768  13.037 -0.29 +0.05    +0.079 A 
DOCKED: ATOM     21  C2D HEM A1501      54.576  81.128  13.442 -0.35 -0.00    -0.007 A 
DOCKED: ATOM     22  C3D HEM A1501      54.320  81.834  12.311 -0.32 -0.01    -0.006 A 
DOCKED: ATOM     23  C4D HEM A1501      54.361  80.898  11.204 -0.23 +0.07    +0.079 A 
DOCKED: ATOM     24  CMD HEM A1501      54.648  81.657  14.819 -0.45 +0.02    +0.032 C 
DOCKED: ATOM     25  NA  HEM A1501      54.472  78.963   8.929 -0.20 -0.20    -0.246 N 
DOCKED: ATOM     26  NB  HEM A1501      54.920  76.200   9.536 -0.08 -0.12    -0.246 N 
DOCKED: ATOM     27  NC  HEM A1501      55.194  76.809  12.357 -0.10 -0.11    -0.246 N 
DOCKED: ATOM     28  ND  HEM A1501      54.636  79.655  11.681 -0.12 -0.18    -0.246 N 
DOCKED: ATOM     29 FE   HEM A1501      54.816  77.913  10.647 -0.07 +0.00    +0.000 Fe
DOCKED: ENDROOT
DOCKED: BRANCH   6  30
DOCKED: ATOM     30  CAA HEM A1501      53.862  81.978   6.774 -0.46 +0.05    +0.039 C 
DOCKED: BRANCH  30  31
DOCKED: ATOM     31  CBA HEM A1501      52.398  82.371   6.805 -0.58 +0.16    +0.102 C 
DOCKED: BRANCH  31  32
DOCKED: ATOM     32  CGA HEM A1501      52.113  83.741   6.253 -0.64 +0.36    +0.186 C 
DOCKED: ATOM     33  O1A HEM A1501      51.075  83.903   5.570 -1.00 -1.36    -0.647 OA
DOCKED: ATOM     34  O2A HEM A1501      52.897  84.670   6.536 -1.14 -1.77    -0.647 OA
DOCKED: ENDBRANCH  31  32
DOCKED: ENDBRANCH  30  31
DOCKED: ENDBRANCH   6  30
DOCKED: BRANCH  22  35
DOCKED: ATOM     35  CAD HEM A1501      54.058  83.292  12.285 -0.39 +0.05    +0.039 C 
DOCKED: BRANCH  35  36
DOCKED: ATOM     36  CBD HEM A1501      52.562  83.605  12.316 -0.46 +0.13    +0.102 C 
DOCKED: BRANCH  36  37
DOCKED: ATOM     37  CGD HEM A1501      52.230  84.826  13.153 -0.47 +0.27    +0.186 C 
DOCKED: ATOM     38  O1D HEM A1501      53.250  85.419  13.565 -0.55 -1.08    -0.647 OA
DOCKED: ATOM     39  O2D HEM A1501      51.001  85.226  13.366 -0.66 -0.92    -0.647 OA
DOCKED: ENDBRANCH  36  37
DOCKED: ENDBRANCH  35  36
DOCKED: ENDBRANCH  22  35
DOCKED: BRANCH  17  40
DOCKED: ATOM     40  CAC HEM A1501      55.934  76.388  15.945 -0.56 +0.00    +0.001 C 
DOCKED: ATOM     41  CBC HEM A1501      55.247  75.818  16.947 -0.65 +0.00    +0.000 C 
DOCKED: ENDBRANCH  17  40
DOCKED: BRANCH  12  42
DOCKED: ATOM     42  CAB HEM A1501      55.287  72.539   9.126 -0.56 +0.00    +0.001 C 
DOCKED: ATOM     43  CBB HEM A1501      55.538  71.564   8.275 -0.56 +0.00    +0.000 C 
DOCKED: ENDBRANCH  12  42
DOCKED: TORSDOF 8
DOCKED: TER
DOCKED: ENDMDL
________________________________________________________________________________


	BEGINNING GENETIC ALGORITHM DOCKING 48 of 100
Run: 48 Seed: 958442532 1646298459 [ Run 48 of 100 GA/GALS ]
Beginning LAMARCKIAN GENETIC ALGORITHM (LGA), with a maximum of 2500000 energy evaluations.

Final-Value: -23.547


	FINAL GENETIC ALGORITHM DOCKED STATE
	_______________________________________________


Detailed state:  trans 54.938 78.952 10.676 quatxyzw -0.166301 0.971825 -0.166413 -0.014409 center 54.495 78.699 10.493 ntor 8 -179.9758 178.8262 143.3237 -140.3787 18.5763 19.0087 169.9087 -152.6785
State:	 54.938  78.952  10.676  -0.166  0.972 -0.166 -178.349   -179.98  178.83  143.32 -140.38   18.58   19.01  169.91 -152.68

DOCKED: MODEL       48
DOCKED: USER    Run = 48
DOCKED: USER    DPF = C:/Users/georg/Desktop/fall2024/4-Computational_Biology/Assignment/executables/HEM.dpf
DOCKED: USER  
DOCKED: USER    Estimated Free Energy of Binding    =  -20.70 kcal/mol  [=(1)+(2)+(3)-(4)]
DOCKED: USER    Estimated Inhibition Constant, Ki   =  666.90 aM (attomolar)  [Temperature = 298.15 K]
DOCKED: USER    
DOCKED: USER    (1) Final Intermolecular Energy     =  -23.09 kcal/mol
DOCKED: USER        vdW + Hbond + desolv Energy     =  -18.62 kcal/mol
DOCKED: USER        Electrostatic Energy            =   -4.47 kcal/mol
DOCKED: USER    (2) Final Total Internal Energy     =   -0.46 kcal/mol
DOCKED: USER    (3) Torsional Free Energy           =   +2.39 kcal/mol
DOCKED: USER    (4) Unbound System's Energy  [=(2)] =   -0.46 kcal/mol
DOCKED: USER    
DOCKED: USER    
DOCKED: USER    NEWDPF move HEM.pdbqt
DOCKED: USER    NEWDPF about 54.495000 78.699000 10.493000
DOCKED: USER    NEWDPF tran0 54.937636 78.951827 10.675960
DOCKED: USER    NEWDPF quaternion0 -0.166301 0.971825 -0.166413 -0.014409
DOCKED: USER    NEWDPF axisangle0 -0.166318 0.971925 -0.166430 -178.348769
DOCKED: USER    NEWDPF quat0 -0.166318 0.971925 -0.166430 -178.348769
DOCKED: USER    NEWDPF dihe0 -179.98 178.83 143.32 -140.38 18.58 19.01 169.91 -152.68 
DOCKED: USER  keepresnum = 1 
DOCKED: USER  
DOCKED: REMARK  8 active torsions:
DOCKED: REMARK  status: ('A' for Active; 'I' for Inactive)
DOCKED: REMARK    1  A    between atoms: C2A_3624  and  CAA_3628 
DOCKED: REMARK    2  A    between atoms: CAA_3628  and  CBA_3629 
DOCKED: REMARK    3  A    between atoms: CBA_3629  and  CGA_3630 
DOCKED: REMARK    4  A    between atoms: C3B_3635  and  CAB_3638 
DOCKED: REMARK    5  A    between atoms: C3C_3642  and  CAC_3645 
DOCKED: REMARK    6  A    between atoms: C3D_3649  and  CAD_3652 
DOCKED: REMARK    7  A    between atoms: CAD_3652  and  CBD_3653 
DOCKED: REMARK    8  A    between atoms: CBD_3653  and  CGD_3654 
DOCKED: USER                              x       y       z     vdW  Elec       q    Type
DOCKED: USER                           _______ _______ _______ _____ _____    ______ ____
DOCKED: ROOT
DOCKED: ATOM      1  CHA HEM A1501      54.224  81.179  10.298 -0.28 +0.04    +0.038 A 
DOCKED: ATOM      2  CHB HEM A1501      54.588  77.280   7.503 -0.38 +0.03    +0.038 A 
DOCKED: ATOM      3  CHC HEM A1501      55.397  74.539  11.391 -0.41 +0.01    +0.038 A 
DOCKED: ATOM      4  CHD HEM A1501      55.099  78.454  14.184 -0.40 +0.02    +0.038 A 
DOCKED: ATOM      5  C1A HEM A1501      54.279  80.357   9.176 -0.26 +0.08    +0.079 A 
DOCKED: ATOM      6  C2A HEM A1501      54.130  80.769   7.777 -0.35 -0.01    -0.006 A 
DOCKED: ATOM      7  C3A HEM A1501      54.232  79.677   7.033 -0.36 -0.01    -0.007 A 
DOCKED: ATOM      8  C4A HEM A1501      54.453  78.586   7.932 -0.32 +0.06    +0.079 A 
DOCKED: ATOM      9  CMA HEM A1501      54.158  79.583   5.539 -0.48 +0.03    +0.032 C 
DOCKED: ATOM     10  C1B HEM A1501      54.811  76.178   8.309 -0.36 +0.04    +0.079 A 
DOCKED: ATOM     11  C2B HEM A1501      54.927  74.814   7.809 -0.47 -0.00    -0.003 A 
DOCKED: ATOM     12  C3B HEM A1501      55.139  74.046   8.908 -0.46 +0.01    +0.015 A 
DOCKED: ATOM     13  C4B HEM A1501      55.176  74.940  10.062 -0.37 +0.03    +0.083 A 
DOCKED: ATOM     14  CMB HEM A1501      54.816  74.417   6.362 -0.58 +0.02    +0.033 C 
DOCKED: ATOM     15  C1C HEM A1501      55.430  75.320  12.515 -0.34 +0.03    +0.079 A 
DOCKED: ATOM     16  C2C HEM A1501      55.745  74.859  13.839 -0.41 -0.00    -0.003 A 
DOCKED: ATOM     17  C3C HEM A1501      55.683  75.950  14.645 -0.39 +0.01    +0.015 A 
DOCKED: ATOM     18  C4C HEM A1501      55.315  77.092  13.786 -0.33 +0.03    +0.083 A 
DOCKED: ATOM     19  CMC HEM A1501      56.069  73.417  14.171 -0.56 +0.01    +0.033 C 
DOCKED: ATOM     20  C1D HEM A1501      54.770  79.572  13.377 -0.33 +0.05    +0.079 A 
DOCKED: ATOM     21  C2D HEM A1501      54.577  80.905  13.860 -0.39 -0.00    -0.007 A 
DOCKED: ATOM     22  C3D HEM A1501      54.329  81.676  12.770 -0.34 -0.00    -0.006 A 
DOCKED: ATOM     23  C4D HEM A1501      54.379  80.807  11.610 -0.23 +0.07    +0.079 A 
DOCKED: ATOM     24  CMD HEM A1501      54.639  81.353  15.266 -0.48 +0.01    +0.032 C 
DOCKED: ATOM     25  NA  HEM A1501      54.508  79.008   9.228 -0.18 -0.20    -0.246 N 
DOCKED: ATOM     26  NB  HEM A1501      54.952  76.214   9.676 -0.04 -0.12    -0.246 N 
DOCKED: ATOM     27  NC  HEM A1501      55.205  76.657  12.529 -0.14 -0.11    -0.246 N 
DOCKED: ATOM     28  ND  HEM A1501      54.651  79.538  12.016 -0.13 -0.17    -0.246 N 
DOCKED: ATOM     29 FE   HEM A1501      54.839  77.860  10.883 -0.07 +0.00    +0.000 Fe
DOCKED: ENDROOT
DOCKED: BRANCH   6  30
DOCKED: ATOM     30  CAA HEM A1501      53.912  82.143   7.247 -0.43 +0.06    +0.039 C 
DOCKED: BRANCH  30  31
DOCKED: ATOM     31  CBA HEM A1501      52.436  82.460   7.102 -0.56 +0.16    +0.102 C 
DOCKED: BRANCH  31  32
DOCKED: ATOM     32  CGA HEM A1501      52.143  83.674   6.264 -0.64 +0.36    +0.186 C 
DOCKED: ATOM     33  O1A HEM A1501      52.934  84.643   6.323 -1.21 -1.69    -0.647 OA
DOCKED: ATOM     34  O2A HEM A1501      51.149  83.646   5.509 -1.02 -1.32    -0.647 OA
DOCKED: ENDBRANCH  31  32
DOCKED: ENDBRANCH  30  31
DOCKED: ENDBRANCH   6  30
DOCKED: BRANCH  22  35
DOCKED: ATOM     35  CAD HEM A1501      54.067  83.134  12.827 -0.41 +0.04    +0.039 C 
DOCKED: BRANCH  35  36
DOCKED: ATOM     36  CBD HEM A1501      52.730  83.448  13.498 -0.51 +0.10    +0.102 C 
DOCKED: BRANCH  36  37
DOCKED: ATOM     37  CGD HEM A1501      52.194  84.820  13.136 -0.47 +0.27    +0.186 C 
DOCKED: ATOM     38  O1D HEM A1501      52.918  85.417  12.310 -0.45 -1.48    -0.647 OA
DOCKED: ATOM     39  O2D HEM A1501      51.066  85.288  13.610 -0.74 -0.92    -0.647 OA
DOCKED: ENDBRANCH  36  37
DOCKED: ENDBRANCH  35  36
DOCKED: ENDBRANCH  22  35
DOCKED: BRANCH  17  40
DOCKED: ATOM     40  CAC HEM A1501      55.919  76.027  16.092 -0.57 +0.00    +0.001 C 
DOCKED: ATOM     41  CBC HEM A1501      55.235  75.387  17.053 -0.64 +0.00    +0.000 C 
DOCKED: ENDBRANCH  17  40
DOCKED: BRANCH  12  42
DOCKED: ATOM     42  CAB HEM A1501      55.323  72.583   9.055 -0.55 +0.00    +0.001 C 
DOCKED: ATOM     43  CBB HEM A1501      55.937  71.889   9.992 -0.57 +0.00    +0.000 C 
DOCKED: ENDBRANCH  12  42
DOCKED: TORSDOF 8
DOCKED: TER
DOCKED: ENDMDL
________________________________________________________________________________


	BEGINNING GENETIC ALGORITHM DOCKING 49 of 100
Run: 49 Seed: 1894073532 1252486997 [ Run 49 of 100 GA/GALS ]
Beginning LAMARCKIAN GENETIC ALGORITHM (LGA), with a maximum of 2500000 energy evaluations.

Final-Value: -23.616


	FINAL GENETIC ALGORITHM DOCKED STATE
	_______________________________________________


Detailed state:  trans 54.914 78.937 10.725 quatxyzw 0.169096 -0.975511 0.140654 -0.001019 center 54.495 78.699 10.493 ntor 8 127.9664 179.4382 159.2845 -113.3374 18.6197 13.4612 154.8787 180.0000
State:	 54.914  78.937  10.725   0.169 -0.976  0.141 -179.883    127.97  179.44  159.28 -113.34   18.62   13.46  154.88  180.00

DOCKED: MODEL       49
DOCKED: USER    Run = 49
DOCKED: USER    DPF = C:/Users/georg/Desktop/fall2024/4-Computational_Biology/Assignment/executables/HEM.dpf
DOCKED: USER  
DOCKED: USER    Estimated Free Energy of Binding    =  -20.73 kcal/mol  [=(1)+(2)+(3)-(4)]
DOCKED: USER    Estimated Inhibition Constant, Ki   =  638.86 aM (attomolar)  [Temperature = 298.15 K]
DOCKED: USER    
DOCKED: USER    (1) Final Intermolecular Energy     =  -23.12 kcal/mol
DOCKED: USER        vdW + Hbond + desolv Energy     =  -18.51 kcal/mol
DOCKED: USER        Electrostatic Energy            =   -4.60 kcal/mol
DOCKED: USER    (2) Final Total Internal Energy     =   -0.50 kcal/mol
DOCKED: USER    (3) Torsional Free Energy           =   +2.39 kcal/mol
DOCKED: USER    (4) Unbound System's Energy  [=(2)] =   -0.50 kcal/mol
DOCKED: USER    
DOCKED: USER    
DOCKED: USER    NEWDPF move HEM.pdbqt
DOCKED: USER    NEWDPF about 54.495000 78.699000 10.493000
DOCKED: USER    NEWDPF tran0 54.914024 78.936648 10.724943
DOCKED: USER    NEWDPF quaternion0 0.169096 -0.975511 0.140654 -0.001019
DOCKED: USER    NEWDPF axisangle0 0.169096 -0.975512 0.140654 -179.883211
DOCKED: USER    NEWDPF quat0 0.169096 -0.975512 0.140654 -179.883211
DOCKED: USER    NEWDPF dihe0 127.97 179.44 159.28 -113.34 18.62 13.46 154.88 180.00 
DOCKED: USER  keepresnum = 1 
DOCKED: USER  
DOCKED: REMARK  8 active torsions:
DOCKED: REMARK  status: ('A' for Active; 'I' for Inactive)
DOCKED: REMARK    1  A    between atoms: C2A_3624  and  CAA_3628 
DOCKED: REMARK    2  A    between atoms: CAA_3628  and  CBA_3629 
DOCKED: REMARK    3  A    between atoms: CBA_3629  and  CGA_3630 
DOCKED: REMARK    4  A    between atoms: C3B_3635  and  CAB_3638 
DOCKED: REMARK    5  A    between atoms: C3C_3642  and  CAC_3645 
DOCKED: REMARK    6  A    between atoms: C3D_3649  and  CAD_3652 
DOCKED: REMARK    7  A    between atoms: CAD_3652  and  CBD_3653 
DOCKED: REMARK    8  A    between atoms: CBD_3653  and  CGD_3654 
DOCKED: USER                              x       y       z     vdW  Elec       q    Type
DOCKED: USER                           _______ _______ _______ _____ _____    ______ ____
DOCKED: ROOT
DOCKED: ATOM      1  CHA HEM A1501      54.188  81.178  10.478 -0.27 +0.04    +0.038 A 
DOCKED: ATOM      2  CHB HEM A1501      54.437  77.413   7.495 -0.40 +0.03    +0.038 A 
DOCKED: ATOM      3  CHC HEM A1501      55.397  74.496  11.217 -0.41 +0.01    +0.038 A 
DOCKED: ATOM      4  CHD HEM A1501      55.213  78.278  14.197 -0.39 +0.02    +0.038 A 
DOCKED: ATOM      5  C1A HEM A1501      54.198  80.409   9.319 -0.26 +0.08    +0.079 A 
DOCKED: ATOM      6  C2A HEM A1501      53.995  80.885   7.947 -0.36 -0.01    -0.006 A 
DOCKED: ATOM      7  C3A HEM A1501      54.065  79.829   7.150 -0.37 -0.01    -0.007 A 
DOCKED: ATOM      8  C4A HEM A1501      54.320  78.697   7.988 -0.33 +0.06    +0.079 A 
DOCKED: ATOM      9  CMA HEM A1501      53.932  79.803   5.658 -0.47 +0.03    +0.032 C 
DOCKED: ATOM     10  C1B HEM A1501      54.690  76.275   8.240 -0.36 +0.05    +0.079 A 
DOCKED: ATOM     11  C2B HEM A1501      54.785  74.935   7.673 -0.48 -0.00    -0.003 A 
DOCKED: ATOM     12  C3B HEM A1501      55.040  74.117   8.727 -0.45 +0.01    +0.015 A 
DOCKED: ATOM     13  C4B HEM A1501      55.124  74.958   9.918 -0.36 +0.03    +0.083 A 
DOCKED: ATOM     14  CMB HEM A1501      54.617  74.606   6.215 -0.59 +0.02    +0.033 C 
DOCKED: ATOM     15  C1C HEM A1501      55.474  75.224  12.374 -0.34 +0.03    +0.079 A 
DOCKED: ATOM     16  C2C HEM A1501      55.841  74.703  13.662 -0.43 -0.00    -0.003 A 
DOCKED: ATOM     17  C3C HEM A1501      55.813  75.756  14.519 -0.39 +0.01    +0.015 A 
DOCKED: ATOM     18  C4C HEM A1501      55.412  76.936  13.728 -0.32 +0.03    +0.083 A 
DOCKED: ATOM     19  CMC HEM A1501      56.177  73.247  13.914 -0.55 +0.01    +0.033 C 
DOCKED: ATOM     20  C1D HEM A1501      54.854  79.431  13.456 -0.33 +0.04    +0.079 A 
DOCKED: ATOM     21  C2D HEM A1501      54.682  80.741  14.007 -0.39 -0.00    -0.007 A 
DOCKED: ATOM     22  C3D HEM A1501      54.392  81.561  12.965 -0.34 -0.00    -0.006 A 
DOCKED: ATOM     23  C4D HEM A1501      54.394  80.746  11.765 -0.23 +0.07    +0.079 A 
DOCKED: ATOM     24  CMD HEM A1501      54.800  81.124  15.429 -0.44 +0.01    +0.032 C 
DOCKED: ATOM     25  NA  HEM A1501      54.427  79.059   9.299 -0.18 -0.20    -0.246 N 
DOCKED: ATOM     26  NB  HEM A1501      54.886  76.248   9.600 -0.02 -0.12    -0.246 N 
DOCKED: ATOM     27  NC  HEM A1501      55.252  76.559  12.458 -0.15 -0.11    -0.246 N 
DOCKED: ATOM     28  ND  HEM A1501      54.681  79.461  12.101 -0.13 -0.17    -0.246 N 
DOCKED: ATOM     29 FE   HEM A1501      54.823  77.836  10.886 -0.07 +0.00    +0.000 Fe
DOCKED: ENDROOT
DOCKED: BRANCH   6  30
DOCKED: ATOM     30  CAA HEM A1501      53.757  82.282   7.490 -0.42 +0.06    +0.039 C 
DOCKED: BRANCH  30  31
DOCKED: ATOM     31  CBA HEM A1501      52.316  82.496   7.068 -0.57 +0.16    +0.102 C 
DOCKED: BRANCH  31  32
DOCKED: ATOM     32  CGA HEM A1501      52.082  83.756   6.281 -0.63 +0.36    +0.186 C 
DOCKED: ATOM     33  O1A HEM A1501      52.936  84.670   6.355 -1.21 -1.72    -0.647 OA
DOCKED: ATOM     34  O2A HEM A1501      51.072  83.821   5.552 -1.00 -1.35    -0.647 OA
DOCKED: ENDBRANCH  31  32
DOCKED: ENDBRANCH  30  31
DOCKED: ENDBRANCH   6  30
DOCKED: BRANCH  22  35
DOCKED: ATOM     35  CAD HEM A1501      54.134  83.014  13.099 -0.40 +0.04    +0.039 C 
DOCKED: BRANCH  35  36
DOCKED: ATOM     36  CBD HEM A1501      52.640  83.323  13.193 -0.52 +0.11    +0.102 C 
DOCKED: BRANCH  36  37
DOCKED: ATOM     37  CGD HEM A1501      52.321  84.787  12.956 -0.43 +0.28    +0.186 C 
DOCKED: ATOM     38  O1D HEM A1501      53.137  85.338  12.185 -0.49 -1.51    -0.647 OA
DOCKED: ATOM     39  O2D HEM A1501      51.272  85.377  13.473 -0.68 -0.98    -0.647 OA
DOCKED: ENDBRANCH  36  37
DOCKED: ENDBRANCH  35  36
DOCKED: ENDBRANCH  22  35
DOCKED: BRANCH  17  40
DOCKED: ATOM     40  CAC HEM A1501      56.105  75.766  15.957 -0.56 +0.00    +0.001 C 
DOCKED: ATOM     41  CBC HEM A1501      55.235  75.997  16.953 -0.65 +0.00    +0.000 C 
DOCKED: ENDBRANCH  17  40
DOCKED: BRANCH  12  42
DOCKED: ATOM     42  CAB HEM A1501      55.228  72.650   8.798 -0.56 +0.00    +0.001 C 
DOCKED: ATOM     43  CBB HEM A1501      55.869  71.913   9.683 -0.55 +0.00    +0.000 C 
DOCKED: ENDBRANCH  12  42
DOCKED: TORSDOF 8
DOCKED: TER
DOCKED: ENDMDL
________________________________________________________________________________


	BEGINNING GENETIC ALGORITHM DOCKING 50 of 100
Run: 50 Seed: 1540282197 28740561 [ Run 50 of 100 GA/GALS ]
Beginning LAMARCKIAN GENETIC ALGORITHM (LGA), with a maximum of 2500000 energy evaluations.

Final-Value: -23.493


	FINAL GENETIC ALGORITHM DOCKED STATE
	_______________________________________________


Detailed state:  trans 54.366 78.771 10.719 quatxyzw -0.015584 -0.006810 -0.007487 0.999827 center 54.495 78.699 10.493 ntor 8 6.2959 -15.2240 -144.0814 42.9379 16.3205 -5.7804 -17.3298 -30.8519
State:	 54.366  78.771  10.719  -0.839 -0.366 -0.403  2.130      6.30  -15.22 -144.08   42.94   16.32   -5.78  -17.33  -30.85

DOCKED: MODEL       50
DOCKED: USER    Run = 50
DOCKED: USER    DPF = C:/Users/georg/Desktop/fall2024/4-Computational_Biology/Assignment/executables/HEM.dpf
DOCKED: USER  
DOCKED: USER    Estimated Free Energy of Binding    =  -20.67 kcal/mol  [=(1)+(2)+(3)-(4)]
DOCKED: USER    Estimated Inhibition Constant, Ki   =  704.39 aM (attomolar)  [Temperature = 298.15 K]
DOCKED: USER    
DOCKED: USER    (1) Final Intermolecular Energy     =  -23.06 kcal/mol
DOCKED: USER        vdW + Hbond + desolv Energy     =  -18.41 kcal/mol
DOCKED: USER        Electrostatic Energy            =   -4.65 kcal/mol
DOCKED: USER    (2) Final Total Internal Energy     =   -0.44 kcal/mol
DOCKED: USER    (3) Torsional Free Energy           =   +2.39 kcal/mol
DOCKED: USER    (4) Unbound System's Energy  [=(2)] =   -0.44 kcal/mol
DOCKED: USER    
DOCKED: USER    
DOCKED: USER    NEWDPF move HEM.pdbqt
DOCKED: USER    NEWDPF about 54.495000 78.699000 10.493000
DOCKED: USER    NEWDPF tran0 54.366197 78.770741 10.718576
DOCKED: USER    NEWDPF quaternion0 -0.015584 -0.006810 -0.007487 0.999827
DOCKED: USER    NEWDPF axisangle0 -0.838658 -0.366472 -0.402927 2.129515
DOCKED: USER    NEWDPF quat0 -0.838658 -0.366472 -0.402927 2.129515
DOCKED: USER    NEWDPF dihe0 6.30 -15.22 -144.08 42.94 16.32 -5.78 -17.33 -30.85 
DOCKED: USER  keepresnum = 1 
DOCKED: USER  
DOCKED: REMARK  8 active torsions:
DOCKED: REMARK  status: ('A' for Active; 'I' for Inactive)
DOCKED: REMARK    1  A    between atoms: C2A_3624  and  CAA_3628 
DOCKED: REMARK    2  A    between atoms: CAA_3628  and  CBA_3629 
DOCKED: REMARK    3  A    between atoms: CBA_3629  and  CGA_3630 
DOCKED: REMARK    4  A    between atoms: C3B_3635  and  CAB_3638 
DOCKED: REMARK    5  A    between atoms: C3C_3642  and  CAC_3645 
DOCKED: REMARK    6  A    between atoms: C3D_3649  and  CAD_3652 
DOCKED: REMARK    7  A    between atoms: CAD_3652  and  CBD_3653 
DOCKED: REMARK    8  A    between atoms: CBD_3653  and  CGD_3654 
DOCKED: USER                              x       y       z     vdW  Elec       q    Type
DOCKED: USER                           _______ _______ _______ _____ _____    ______ ____
DOCKED: ROOT
DOCKED: ATOM      1  CHA HEM A1501      54.259  81.113  10.381 -0.27 +0.04    +0.038 A 
DOCKED: ATOM      2  CHB HEM A1501      55.211  78.340  14.195 -0.39 +0.02    +0.038 A 
DOCKED: ATOM      3  CHC HEM A1501      55.473  74.460  11.339 -0.41 +0.01    +0.038 A 
DOCKED: ATOM      4  CHD HEM A1501      54.454  77.226   7.528 -0.40 +0.03    +0.038 A 
DOCKED: ATOM      5  C1A HEM A1501      54.470  80.695  11.690 -0.23 +0.06    +0.079 A 
DOCKED: ATOM      6  C2A HEM A1501      54.440  81.530  12.896 -0.33 -0.00    -0.006 A 
DOCKED: ATOM      7  C3A HEM A1501      54.708  80.743  13.927 -0.39 -0.00    -0.007 A 
DOCKED: ATOM      8  C4A HEM A1501      54.895  79.425  13.400 -0.32 +0.04    +0.079 A 
DOCKED: ATOM      9  CMA HEM A1501      54.782  81.129  15.373 -0.45 +0.01    +0.032 C 
DOCKED: ATOM     10  C1B HEM A1501      55.398  77.041  13.760 -0.32 +0.03    +0.079 A 
DOCKED: ATOM     11  C2B HEM A1501      55.751  75.932  14.638 -0.40 -0.00    -0.003 A 
DOCKED: ATOM     12  C3B HEM A1501      55.839  74.846  13.827 -0.41 +0.01    +0.015 A 
DOCKED: ATOM     13  C4B HEM A1501      55.517  75.289  12.473 -0.34 +0.03    +0.083 A 
DOCKED: ATOM     14  CMB HEM A1501      55.964  76.046  16.123 -0.55 +0.01    +0.033 C 
DOCKED: ATOM     15  C1C HEM A1501      55.194  74.812  10.046 -0.38 +0.03    +0.079 A 
DOCKED: ATOM     16  C2C HEM A1501      55.084  73.899   8.941 -0.47 -0.00    -0.003 A 
DOCKED: ATOM     17  C3C HEM A1501      54.779  74.654   7.854 -0.46 +0.01    +0.015 A 
DOCKED: ATOM     18  C4C HEM A1501      54.714  76.054   8.316 -0.36 +0.05    +0.083 A 
DOCKED: ATOM     19  CMC HEM A1501      55.284  72.402   9.065 -0.54 +0.01    +0.033 C 
DOCKED: ATOM     20  C1D HEM A1501      54.361  78.575   7.949 -0.33 +0.06    +0.079 A 
DOCKED: ATOM     21  C2D HEM A1501      54.091  79.688   7.090 -0.37 -0.01    -0.007 A 
DOCKED: ATOM     22  C3D HEM A1501      54.036  80.785   7.888 -0.36 -0.01    -0.006 A 
DOCKED: ATOM     23  C4D HEM A1501      54.268  80.337   9.248 -0.26 +0.08    +0.079 A 
DOCKED: ATOM     24  CMD HEM A1501      53.905  79.648   5.625 -0.45 +0.03    +0.032 C 
DOCKED: ATOM     25  NA  HEM A1501      54.723  79.397  12.048 -0.13 -0.17    -0.246 N 
DOCKED: ATOM     26  NB  HEM A1501      55.279  76.618  12.458 -0.15 -0.11    -0.246 N 
DOCKED: ATOM     27  NC  HEM A1501      54.944  76.078   9.630 -0.10 -0.12    -0.246 N 
DOCKED: ATOM     28  ND  HEM A1501      54.458  78.991   9.247 -0.18 -0.20    -0.246 N 
DOCKED: ATOM     29 FE   HEM A1501      54.840  77.766  10.825 -0.07 +0.00    +0.000 Fe
DOCKED: ENDROOT
DOCKED: BRANCH   6  30
DOCKED: ATOM     30  CAA HEM A1501      54.160  82.989  12.989 -0.39 +0.04    +0.039 C 
DOCKED: BRANCH  30  31
DOCKED: ATOM     31  CBA HEM A1501      52.672  83.277  12.961 -0.52 +0.11    +0.102 C 
DOCKED: BRANCH  31  32
DOCKED: ATOM     32  CGA HEM A1501      52.325  84.727  12.758 -0.40 +0.28    +0.186 C 
DOCKED: ATOM     33  O1A HEM A1501      53.038  85.406  11.983 -0.40 -1.57    -0.647 OA
DOCKED: ATOM     34  O2A HEM A1501      51.315  85.181  13.333 -0.53 -0.94    -0.647 OA
DOCKED: ENDBRANCH  31  32
DOCKED: ENDBRANCH  30  31
DOCKED: ENDBRANCH   6  30
DOCKED: BRANCH  22  35
DOCKED: ATOM     35  CAD HEM A1501      53.779  82.158   7.394 -0.44 +0.06    +0.039 C 
DOCKED: BRANCH  35  36
DOCKED: ATOM     36  CBD HEM A1501      52.501  82.235   6.559 -0.58 +0.15    +0.102 C 
DOCKED: BRANCH  36  37
DOCKED: ATOM     37  CGD HEM A1501      52.167  83.648   6.116 -0.64 +0.35    +0.186 C 
DOCKED: ATOM     38  O1D HEM A1501      51.060  83.722   5.540 -1.00 -1.35    -0.647 OA
DOCKED: ATOM     39  O2D HEM A1501      52.945  84.672   6.366 -1.20 -1.73    -0.647 OA
DOCKED: ENDBRANCH  36  37
DOCKED: ENDBRANCH  35  36
DOCKED: ENDBRANCH  22  35
DOCKED: BRANCH  17  40
DOCKED: ATOM     40  CAC HEM A1501      54.560  74.213   6.472 -0.61 +0.00    +0.001 C 
DOCKED: ATOM     41  CBC HEM A1501      53.482  74.460   5.711 -0.65 +0.00    +0.000 C 
DOCKED: ENDBRANCH  17  40
DOCKED: BRANCH  12  42
DOCKED: ATOM     42  CAB HEM A1501      56.174  73.434  14.122 -0.58 +0.00    +0.001 C 
DOCKED: ATOM     43  CBB HEM A1501      57.067  72.922  14.945 -0.65 +0.00    +0.000 C 
DOCKED: ENDBRANCH  12  42
DOCKED: TORSDOF 8
DOCKED: TER
DOCKED: ENDMDL
________________________________________________________________________________


	BEGINNING GENETIC ALGORITHM DOCKING 51 of 100
Run: 51 Seed: 45741654 1028465569 [ Run 51 of 100 GA/GALS ]
Beginning LAMARCKIAN GENETIC ALGORITHM (LGA), with a maximum of 2500000 energy evaluations.

Final-Value: -23.143


	FINAL GENETIC ALGORITHM DOCKED STATE
	_______________________________________________


Detailed state:  trans 54.325 78.675 10.384 quatxyzw 0.008131 0.016365 -0.016134 0.999703 center 54.495 78.699 10.493 ntor 8 5.2406 -28.4994 -12.5661 -160.4740 25.2180 -6.7771 34.3593 -8.7183
State:	 54.325  78.675  10.384   0.334  0.671 -0.662  2.794      5.24  -28.50  -12.57 -160.47   25.22   -6.78   34.36   -8.72

DOCKED: MODEL       51
DOCKED: USER    Run = 51
DOCKED: USER    DPF = C:/Users/georg/Desktop/fall2024/4-Computational_Biology/Assignment/executables/HEM.dpf
DOCKED: USER  
DOCKED: USER    Estimated Free Energy of Binding    =  -20.37 kcal/mol  [=(1)+(2)+(3)-(4)]
DOCKED: USER    Estimated Inhibition Constant, Ki   =    1.17 fM (femtomolar)  [Temperature = 298.15 K]
DOCKED: USER    
DOCKED: USER    (1) Final Intermolecular Energy     =  -22.76 kcal/mol
DOCKED: USER        vdW + Hbond + desolv Energy     =  -18.56 kcal/mol
DOCKED: USER        Electrostatic Energy            =   -4.20 kcal/mol
DOCKED: USER    (2) Final Total Internal Energy     =   -0.39 kcal/mol
DOCKED: USER    (3) Torsional Free Energy           =   +2.39 kcal/mol
DOCKED: USER    (4) Unbound System's Energy  [=(2)] =   -0.39 kcal/mol
DOCKED: USER    
DOCKED: USER    
DOCKED: USER    NEWDPF move HEM.pdbqt
DOCKED: USER    NEWDPF about 54.495000 78.699000 10.493000
DOCKED: USER    NEWDPF tran0 54.324986 78.675427 10.384237
DOCKED: USER    NEWDPF quaternion0 0.008131 0.016365 -0.016134 0.999703
DOCKED: USER    NEWDPF axisangle0 0.333561 0.671343 -0.661843 2.793694
DOCKED: USER    NEWDPF quat0 0.333561 0.671343 -0.661843 2.793694
DOCKED: USER    NEWDPF dihe0 5.24 -28.50 -12.57 -160.47 25.22 -6.78 34.36 -8.72 
DOCKED: USER  keepresnum = 1 
DOCKED: USER  
DOCKED: REMARK  8 active torsions:
DOCKED: REMARK  status: ('A' for Active; 'I' for Inactive)
DOCKED: REMARK    1  A    between atoms: C2A_3624  and  CAA_3628 
DOCKED: REMARK    2  A    between atoms: CAA_3628  and  CBA_3629 
DOCKED: REMARK    3  A    between atoms: CBA_3629  and  CGA_3630 
DOCKED: REMARK    4  A    between atoms: C3B_3635  and  CAB_3638 
DOCKED: REMARK    5  A    between atoms: C3C_3642  and  CAC_3645 
DOCKED: REMARK    6  A    between atoms: C3D_3649  and  CAD_3652 
DOCKED: REMARK    7  A    between atoms: CAD_3652  and  CBD_3653 
DOCKED: REMARK    8  A    between atoms: CBD_3653  and  CGD_3654 
DOCKED: USER                              x       y       z     vdW  Elec       q    Type
DOCKED: USER                           _______ _______ _______ _____ _____    ______ ____
DOCKED: ROOT
DOCKED: ATOM      1  CHA HEM A1501      54.197  80.997   9.931 -0.28 +0.04    +0.038 A 
DOCKED: ATOM      2  CHB HEM A1501      55.011  78.422  13.912 -0.39 +0.02    +0.038 A 
DOCKED: ATOM      3  CHC HEM A1501      55.469  74.419  11.259 -0.41 +0.01    +0.038 A 
DOCKED: ATOM      4  CHD HEM A1501      54.588  76.986   7.277 -0.40 +0.02    +0.038 A 
DOCKED: ATOM      5  C1A HEM A1501      54.352  80.644  11.268 -0.20 +0.07    +0.079 A 
DOCKED: ATOM      6  C2A HEM A1501      54.253  81.534  12.429 -0.33 -0.01    -0.006 A 
DOCKED: ATOM      7  C3A HEM A1501      54.484  80.800  13.508 -0.38 -0.00    -0.007 A 
DOCKED: ATOM      8  C4A HEM A1501      54.716  79.463  13.054 -0.30 +0.05    +0.079 A 
DOCKED: ATOM      9  CMA HEM A1501      54.483  81.255  14.936 -0.48 +0.02    +0.032 C 
DOCKED: ATOM     10  C1B HEM A1501      55.239  77.108  13.549 -0.32 +0.03    +0.079 A 
DOCKED: ATOM     11  C2B HEM A1501      55.567  76.047  14.494 -0.40 -0.00    -0.003 A 
DOCKED: ATOM     12  C3B HEM A1501      55.710  74.927  13.740 -0.40 +0.01    +0.015 A 
DOCKED: ATOM     13  C4B HEM A1501      55.446  75.300  12.354 -0.34 +0.03    +0.083 A 
DOCKED: ATOM     14  CMB HEM A1501      55.708  76.234  15.980 -0.54 +0.01    +0.033 C 
DOCKED: ATOM     15  C1C HEM A1501      55.247  74.705   9.939 -0.38 +0.03    +0.079 A 
DOCKED: ATOM     16  C2C HEM A1501      55.202  73.740   8.875 -0.47 -0.00    -0.003 A 
DOCKED: ATOM     17  C3C HEM A1501      54.938  74.438   7.740 -0.47 +0.01    +0.015 A 
DOCKED: ATOM     18  C4C HEM A1501      54.829  75.857   8.132 -0.37 +0.05    +0.083 A 
DOCKED: ATOM     19  CMC HEM A1501      55.420  72.254   9.078 -0.53 +0.01    +0.033 C 
DOCKED: ATOM     20  C1D HEM A1501      54.454  78.351   7.630 -0.33 +0.06    +0.079 A 
DOCKED: ATOM     21  C2D HEM A1501      54.207  79.417   6.707 -0.38 -0.01    -0.007 A 
DOCKED: ATOM     22  C3D HEM A1501      54.097  80.549   7.449 -0.36 -0.01    -0.006 A 
DOCKED: ATOM     23  C4D HEM A1501      54.272  80.170   8.838 -0.27 +0.08    +0.079 A 
DOCKED: ATOM     24  CMD HEM A1501      54.091  79.306   5.239 -0.49 +0.02    +0.032 C 
DOCKED: ATOM     25  NA  HEM A1501      54.608  79.369  11.698 -0.07 -0.17    -0.246 N 
DOCKED: ATOM     26  NB  HEM A1501      55.189  76.622  12.264 -0.09 -0.11    -0.246 N 
DOCKED: ATOM     27  NC  HEM A1501      54.996  75.945   9.453 -0.18 -0.12    -0.246 N 
DOCKED: ATOM     28  ND  HEM A1501      54.483  78.829   8.910 -0.20 -0.20    -0.246 N 
DOCKED: ATOM     29 FE   HEM A1501      54.809  77.685  10.560 -0.07 +0.00    +0.000 Fe
DOCKED: ENDROOT
DOCKED: BRANCH   6  30
DOCKED: ATOM     30  CAA HEM A1501      53.946  82.991  12.440 -0.42 +0.04    +0.039 C 
DOCKED: BRANCH  30  31
DOCKED: ATOM     31  CBA HEM A1501      52.892  83.334  13.475 -0.50 +0.10    +0.102 C 
DOCKED: BRANCH  31  32
DOCKED: ATOM     32  CGA HEM A1501      52.175  84.632  13.223 -0.51 +0.25    +0.186 C 
DOCKED: ATOM     33  O1A HEM A1501      51.150  84.886  13.897 -0.47 -0.83    -0.647 OA
DOCKED: ATOM     34  O2A HEM A1501      52.657  85.422  12.385 -0.49 -1.40    -0.647 OA
DOCKED: ENDBRANCH  31  32
DOCKED: ENDBRANCH  30  31
DOCKED: ENDBRANCH   6  30
DOCKED: BRANCH  22  35
DOCKED: ATOM     35  CAD HEM A1501      53.843  81.893   6.879 -0.45 +0.05    +0.039 C 
DOCKED: BRANCH  35  36
DOCKED: ATOM     36  CBD HEM A1501      52.385  82.067   6.455 -0.58 +0.15    +0.102 C 
DOCKED: BRANCH  36  37
DOCKED: ATOM     37  CGD HEM A1501      52.071  83.472   5.974 -0.63 +0.33    +0.186 C 
DOCKED: ATOM     38  O1D HEM A1501      52.935  84.305   6.326 -1.19 -1.51    -0.647 OA
DOCKED: ATOM     39  O2D HEM A1501      51.030  83.750   5.230 -0.99 -1.33    -0.647 OA
DOCKED: ENDBRANCH  36  37
DOCKED: ENDBRANCH  35  36
DOCKED: ENDBRANCH  22  35
DOCKED: BRANCH  17  40
DOCKED: ATOM     40  CAC HEM A1501      54.791  73.929   6.372 -0.60 +0.00    +0.001 C 
DOCKED: ATOM     41  CBC HEM A1501      53.739  74.105   5.557 -0.67 +0.00    +0.000 C 
DOCKED: ENDBRANCH  17  40
DOCKED: BRANCH  12  42
DOCKED: ATOM     42  CAB HEM A1501      56.054  73.536  14.117 -0.57 +0.00    +0.001 C 
DOCKED: ATOM     43  CBB HEM A1501      57.061  73.067  14.825 -0.64 +0.00    +0.000 C 
DOCKED: ENDBRANCH  12  42
DOCKED: TORSDOF 8
DOCKED: TER
DOCKED: ENDMDL
________________________________________________________________________________


	BEGINNING GENETIC ALGORITHM DOCKING 52 of 100
Run: 52 Seed: 926164020 1083406482 [ Run 52 of 100 GA/GALS ]
Beginning LAMARCKIAN GENETIC ALGORITHM (LGA), with a maximum of 2500000 energy evaluations.

Final-Value: -23.387


	FINAL GENETIC ALGORITHM DOCKED STATE
	_______________________________________________


Detailed state:  trans 54.948 78.918 10.534 quatxyzw -0.173530 0.966887 -0.184505 -0.031218 center 54.495 78.699 10.493 ntor 8 -171.6872 23.1911 126.7952 -155.0568 15.4651 -17.6927 -175.3218 -157.4710
State:	 54.948  78.918  10.534  -0.174  0.967 -0.185 -176.422   -171.69   23.19  126.80 -155.06   15.47  -17.69 -175.32 -157.47

DOCKED: MODEL       52
DOCKED: USER    Run = 52
DOCKED: USER    DPF = C:/Users/georg/Desktop/fall2024/4-Computational_Biology/Assignment/executables/HEM.dpf
DOCKED: USER  
DOCKED: USER    Estimated Free Energy of Binding    =  -20.45 kcal/mol  [=(1)+(2)+(3)-(4)]
DOCKED: USER    Estimated Inhibition Constant, Ki   =    1.01 fM (femtomolar)  [Temperature = 298.15 K]
DOCKED: USER    
DOCKED: USER    (1) Final Intermolecular Energy     =  -22.84 kcal/mol
DOCKED: USER        vdW + Hbond + desolv Energy     =  -18.63 kcal/mol
DOCKED: USER        Electrostatic Energy            =   -4.21 kcal/mol
DOCKED: USER    (2) Final Total Internal Energy     =   -0.55 kcal/mol
DOCKED: USER    (3) Torsional Free Energy           =   +2.39 kcal/mol
DOCKED: USER    (4) Unbound System's Energy  [=(2)] =   -0.55 kcal/mol
DOCKED: USER    
DOCKED: USER    
DOCKED: USER    NEWDPF move HEM.pdbqt
DOCKED: USER    NEWDPF about 54.495000 78.699000 10.493000
DOCKED: USER    NEWDPF tran0 54.947598 78.917538 10.534327
DOCKED: USER    NEWDPF quaternion0 -0.173530 0.966887 -0.184505 -0.031218
DOCKED: USER    NEWDPF axisangle0 -0.173615 0.967359 -0.184595 -176.422128
DOCKED: USER    NEWDPF quat0 -0.173615 0.967359 -0.184595 -176.422128
DOCKED: USER    NEWDPF dihe0 -171.69 23.19 126.80 -155.06 15.47 -17.69 -175.32 -157.47 
DOCKED: USER  keepresnum = 1 
DOCKED: USER  
DOCKED: REMARK  8 active torsions:
DOCKED: REMARK  status: ('A' for Active; 'I' for Inactive)
DOCKED: REMARK    1  A    between atoms: C2A_3624  and  CAA_3628 
DOCKED: REMARK    2  A    between atoms: CAA_3628  and  CBA_3629 
DOCKED: REMARK    3  A    between atoms: CBA_3629  and  CGA_3630 
DOCKED: REMARK    4  A    between atoms: C3B_3635  and  CAB_3638 
DOCKED: REMARK    5  A    between atoms: C3C_3642  and  CAC_3645 
DOCKED: REMARK    6  A    between atoms: C3D_3649  and  CAD_3652 
DOCKED: REMARK    7  A    between atoms: CAD_3652  and  CBD_3653 
DOCKED: REMARK    8  A    between atoms: CBD_3653  and  CGD_3654 
DOCKED: USER                              x       y       z     vdW  Elec       q    Type
DOCKED: USER                           _______ _______ _______ _____ _____    ______ ____
DOCKED: ROOT
DOCKED: ATOM      1  CHA HEM A1501      54.203  81.116  10.060 -0.28 +0.04    +0.038 A 
DOCKED: ATOM      2  CHB HEM A1501      54.748  77.141   7.406 -0.37 +0.02    +0.038 A 
DOCKED: ATOM      3  CHC HEM A1501      55.470  74.540  11.406 -0.41 +0.01    +0.038 A 
DOCKED: ATOM      4  CHD HEM A1501      54.990  78.533  14.060 -0.40 +0.02    +0.038 A 
DOCKED: ATOM      5  C1A HEM A1501      54.316  80.262   8.968 -0.27 +0.08    +0.079 A 
DOCKED: ATOM      6  C2A HEM A1501      54.211  80.626   7.552 -0.34 -0.01    -0.006 A 
DOCKED: ATOM      7  C3A HEM A1501      54.361  79.514   6.847 -0.36 -0.01    -0.007 A 
DOCKED: ATOM      8  C4A HEM A1501      54.571  78.457   7.788 -0.32 +0.06    +0.079 A 
DOCKED: ATOM      9  CMA HEM A1501      54.344  79.372   5.355 -0.50 +0.02    +0.032 C 
DOCKED: ATOM     10  C1B HEM A1501      54.964  76.070   8.254 -0.35 +0.04    +0.079 A 
DOCKED: ATOM     11  C2B HEM A1501      55.126  74.694   7.801 -0.47 -0.00    -0.003 A 
DOCKED: ATOM     12  C3B HEM A1501      55.313  73.964   8.932 -0.45 +0.01    +0.015 A 
DOCKED: ATOM     13  C4B HEM A1501      55.289  74.895  10.057 -0.37 +0.03    +0.083 A 
DOCKED: ATOM     14  CMB HEM A1501      55.076  74.250   6.365 -0.58 +0.02    +0.033 C 
DOCKED: ATOM     15  C1C HEM A1501      55.445  75.356  12.504 -0.34 +0.03    +0.079 A 
DOCKED: ATOM     16  C2C HEM A1501      55.720  74.943  13.853 -0.41 -0.00    -0.003 A 
DOCKED: ATOM     17  C3C HEM A1501      55.608  76.057  14.621 -0.39 +0.01    +0.015 A 
DOCKED: ATOM     18  C4C HEM A1501      55.248  77.163  13.713 -0.32 +0.03    +0.083 A 
DOCKED: ATOM     19  CMC HEM A1501      56.061  73.519  14.242 -0.55 +0.01    +0.033 C 
DOCKED: ATOM     20  C1D HEM A1501      54.668  79.617  13.207 -0.31 +0.05    +0.079 A 
DOCKED: ATOM     21  C2D HEM A1501      54.431  80.961  13.640 -0.39 -0.00    -0.007 A 
DOCKED: ATOM     22  C3D HEM A1501      54.208  81.692  12.517 -0.34 -0.01    -0.006 A 
DOCKED: ATOM     23  C4D HEM A1501      54.317  80.788  11.389 -0.22 +0.07    +0.079 A 
DOCKED: ATOM     24  CMD HEM A1501      54.432  81.453  15.032 -0.48 +0.02    +0.032 C 
DOCKED: ATOM     25  NA  HEM A1501      54.570  78.919   9.070 -0.18 -0.19    -0.246 N 
DOCKED: ATOM     26  NB  HEM A1501      55.054  76.151   9.623 -0.13 -0.12    -0.246 N 
DOCKED: ATOM     27  NC  HEM A1501      55.193  76.688  12.468 -0.13 -0.11    -0.246 N 
DOCKED: ATOM     28  ND  HEM A1501      54.600  79.539  11.844 -0.11 -0.17    -0.246 N 
DOCKED: ATOM     29 FE   HEM A1501      54.864  77.830  10.773 -0.07 +0.00    +0.000 Fe
DOCKED: ENDROOT
DOCKED: BRANCH   6  30
DOCKED: ATOM     30  CAA HEM A1501      53.984  81.978   6.971 -0.43 +0.05    +0.039 C 
DOCKED: BRANCH  30  31
DOCKED: ATOM     31  CBA HEM A1501      52.535  82.405   7.094 -0.56 +0.16    +0.102 C 
DOCKED: BRANCH  31  32
DOCKED: ATOM     32  CGA HEM A1501      52.180  83.629   6.294 -0.64 +0.35    +0.186 C 
DOCKED: ATOM     33  O1A HEM A1501      52.884  84.655   6.434 -1.16 -1.73    -0.647 OA
DOCKED: ATOM     34  O2A HEM A1501      51.227  83.557   5.491 -1.04 -1.28    -0.647 OA
DOCKED: ENDBRANCH  31  32
DOCKED: ENDBRANCH  30  31
DOCKED: ENDBRANCH   6  30
DOCKED: BRANCH  22  35
DOCKED: ATOM     35  CAD HEM A1501      53.915  83.145  12.518 -0.42 +0.05    +0.039 C 
DOCKED: BRANCH  35  36
DOCKED: ATOM     36  CBD HEM A1501      52.502  83.442  13.021 -0.52 +0.11    +0.102 C 
DOCKED: BRANCH  36  37
DOCKED: ATOM     37  CGD HEM A1501      52.299  84.899  13.391 -0.47 +0.27    +0.186 C 
DOCKED: ATOM     38  O1D HEM A1501      53.374  85.536  13.443 -0.43 -1.17    -0.647 OA
DOCKED: ATOM     39  O2D HEM A1501      51.114  85.424  13.582 -0.80 -0.96    -0.647 OA
DOCKED: ENDBRANCH  36  37
DOCKED: ENDBRANCH  35  36
DOCKED: ENDBRANCH  22  35
DOCKED: BRANCH  17  40
DOCKED: ATOM     40  CAC HEM A1501      55.788  76.184  16.072 -0.57 +0.00    +0.001 C 
DOCKED: ATOM     41  CBC HEM A1501      55.192  75.449  17.024 -0.64 +0.00    +0.000 C 
DOCKED: ENDBRANCH  17  40
DOCKED: BRANCH  12  42
DOCKED: ATOM     42  CAB HEM A1501      55.521  72.512   9.132 -0.55 +0.00    +0.001 C 
DOCKED: ATOM     43  CBB HEM A1501      55.570  71.527   8.256 -0.56 +0.00    +0.000 C 
DOCKED: ENDBRANCH  12  42
DOCKED: TORSDOF 8
DOCKED: TER
DOCKED: ENDMDL
________________________________________________________________________________


	BEGINNING GENETIC ALGORITHM DOCKING 53 of 100
Run: 53 Seed: 1412308527 1149712134 [ Run 53 of 100 GA/GALS ]
Beginning LAMARCKIAN GENETIC ALGORITHM (LGA), with a maximum of 2500000 energy evaluations.

Final-Value: -23.427


	FINAL GENETIC ALGORITHM DOCKED STATE
	_______________________________________________


Detailed state:  trans 54.952 78.876 10.697 quatxyzw -0.167491 0.972548 -0.161355 -0.007906 center 54.495 78.699 10.493 ntor 8 164.1590 -178.6619 -42.3052 -98.2835 13.2828 4.2359 163.6505 178.9292
State:	 54.952  78.876  10.697  -0.167  0.973 -0.161 -179.094    164.16 -178.66  -42.31  -98.28   13.28    4.24  163.65  178.93

DOCKED: MODEL       53
DOCKED: USER    Run = 53
DOCKED: USER    DPF = C:/Users/georg/Desktop/fall2024/4-Computational_Biology/Assignment/executables/HEM.dpf
DOCKED: USER  
DOCKED: USER    Estimated Free Energy of Binding    =  -20.59 kcal/mol  [=(1)+(2)+(3)-(4)]
DOCKED: USER    Estimated Inhibition Constant, Ki   =  808.53 aM (attomolar)  [Temperature = 298.15 K]
DOCKED: USER    
DOCKED: USER    (1) Final Intermolecular Energy     =  -22.98 kcal/mol
DOCKED: USER        vdW + Hbond + desolv Energy     =  -18.33 kcal/mol
DOCKED: USER        Electrostatic Energy            =   -4.65 kcal/mol
DOCKED: USER    (2) Final Total Internal Energy     =   -0.45 kcal/mol
DOCKED: USER    (3) Torsional Free Energy           =   +2.39 kcal/mol
DOCKED: USER    (4) Unbound System's Energy  [=(2)] =   -0.45 kcal/mol
DOCKED: USER    
DOCKED: USER    
DOCKED: USER    NEWDPF move HEM.pdbqt
DOCKED: USER    NEWDPF about 54.495000 78.699000 10.493000
DOCKED: USER    NEWDPF tran0 54.952248 78.875883 10.697481
DOCKED: USER    NEWDPF quaternion0 -0.167491 0.972548 -0.161355 -0.007906
DOCKED: USER    NEWDPF axisangle0 -0.167496 0.972578 -0.161360 -179.094034
DOCKED: USER    NEWDPF quat0 -0.167496 0.972578 -0.161360 -179.094034
DOCKED: USER    NEWDPF dihe0 164.16 -178.66 -42.31 -98.28 13.28 4.24 163.65 178.93 
DOCKED: USER  keepresnum = 1 
DOCKED: USER  
DOCKED: REMARK  8 active torsions:
DOCKED: REMARK  status: ('A' for Active; 'I' for Inactive)
DOCKED: REMARK    1  A    between atoms: C2A_3624  and  CAA_3628 
DOCKED: REMARK    2  A    between atoms: CAA_3628  and  CBA_3629 
DOCKED: REMARK    3  A    between atoms: CBA_3629  and  CGA_3630 
DOCKED: REMARK    4  A    between atoms: C3B_3635  and  CAB_3638 
DOCKED: REMARK    5  A    between atoms: C3C_3642  and  CAC_3645 
DOCKED: REMARK    6  A    between atoms: C3D_3649  and  CAD_3652 
DOCKED: REMARK    7  A    between atoms: CAD_3652  and  CBD_3653 
DOCKED: REMARK    8  A    between atoms: CBD_3653  and  CGD_3654 
DOCKED: USER                              x       y       z     vdW  Elec       q    Type
DOCKED: USER                           _______ _______ _______ _____ _____    ______ ____
DOCKED: ROOT
DOCKED: ATOM      1  CHA HEM A1501      54.233  81.106  10.347 -0.27 +0.04    +0.038 A 
DOCKED: ATOM      2  CHB HEM A1501      54.556  77.229   7.517 -0.39 +0.03    +0.038 A 
DOCKED: ATOM      3  CHC HEM A1501      55.422  74.458  11.371 -0.40 +0.01    +0.038 A 
DOCKED: ATOM      4  CHD HEM A1501      55.165  78.351  14.198 -0.40 +0.02    +0.038 A 
DOCKED: ATOM      5  C1A HEM A1501      54.271  80.293   9.219 -0.26 +0.08    +0.079 A 
DOCKED: ATOM      6  C2A HEM A1501      54.102  80.716   7.825 -0.35 -0.01    -0.006 A 
DOCKED: ATOM      7  C3A HEM A1501      54.193  79.630   7.071 -0.36 -0.01    -0.007 A 
DOCKED: ATOM      8  C4A HEM A1501      54.427  78.532   7.958 -0.33 +0.06    +0.079 A 
DOCKED: ATOM      9  CMA HEM A1501      54.097  79.548   5.578 -0.48 +0.03    +0.032 C 
DOCKED: ATOM     10  C1B HEM A1501      54.790  76.121   8.311 -0.36 +0.04    +0.079 A 
DOCKED: ATOM     11  C2B HEM A1501      54.899  74.761   7.798 -0.47 -0.00    -0.003 A 
DOCKED: ATOM     12  C3B HEM A1501      55.127  73.984   8.889 -0.46 +0.01    +0.015 A 
DOCKED: ATOM     13  C4B HEM A1501      55.182  74.869  10.048 -0.37 +0.03    +0.083 A 
DOCKED: ATOM     14  CMB HEM A1501      54.767  74.375   6.350 -0.58 +0.02    +0.033 C 
DOCKED: ATOM     15  C1C HEM A1501      55.471  75.230  12.500 -0.35 +0.03    +0.079 A 
DOCKED: ATOM     16  C2C HEM A1501      55.806  74.758  13.816 -0.42 -0.00    -0.003 A 
DOCKED: ATOM     17  C3C HEM A1501      55.756  75.843  14.632 -0.39 +0.01    +0.015 A 
DOCKED: ATOM     18  C4C HEM A1501      55.375  76.991  13.787 -0.32 +0.03    +0.083 A 
DOCKED: ATOM     19  CMC HEM A1501      56.135  73.313  14.132 -0.56 +0.01    +0.033 C 
DOCKED: ATOM     20  C1D HEM A1501      54.824  79.474  13.406 -0.33 +0.04    +0.079 A 
DOCKED: ATOM     21  C2D HEM A1501      54.638  80.804  13.902 -0.39 -0.00    -0.007 A 
DOCKED: ATOM     22  C3D HEM A1501      54.375  81.583  12.822 -0.33 -0.00    -0.006 A 
DOCKED: ATOM     23  C4D HEM A1501      54.407  80.723  11.655 -0.23 +0.07    +0.079 A 
DOCKED: ATOM     24  CMD HEM A1501      54.721  81.241  15.310 -0.48 +0.01    +0.032 C 
DOCKED: ATOM     25  NA  HEM A1501      54.501  78.943   9.256 -0.17 -0.20    -0.246 N 
DOCKED: ATOM     26  NB  HEM A1501      54.952  76.146   9.676 -0.06 -0.12    -0.246 N 
DOCKED: ATOM     27  NC  HEM A1501      55.247  76.567  12.528 -0.16 -0.11    -0.246 N 
DOCKED: ATOM     28  ND  HEM A1501      54.685  79.452  12.046 -0.13 -0.17    -0.246 N 
DOCKED: ATOM     29 FE   HEM A1501      54.857  77.782  10.898 -0.07 +0.00    +0.000 Fe
DOCKED: ENDROOT
DOCKED: BRANCH   6  30
DOCKED: ATOM     30  CAA HEM A1501      53.876  82.094   7.309 -0.44 +0.05    +0.039 C 
DOCKED: BRANCH  30  31
DOCKED: ATOM     31  CBA HEM A1501      52.407  82.359   7.045 -0.57 +0.16    +0.102 C 
DOCKED: BRANCH  31  32
DOCKED: ATOM     32  CGA HEM A1501      52.131  83.648   6.319 -0.63 +0.36    +0.186 C 
DOCKED: ATOM     33  O1A HEM A1501      51.260  83.648   5.419 -1.04 -1.28    -0.647 OA
DOCKED: ATOM     34  O2A HEM A1501      52.749  84.672   6.675 -1.08 -1.78    -0.647 OA
DOCKED: ENDBRANCH  31  32
DOCKED: ENDBRANCH  30  31
DOCKED: ENDBRANCH   6  30
DOCKED: BRANCH  22  35
DOCKED: ATOM     35  CAD HEM A1501      54.114  83.040  12.894 -0.40 +0.04    +0.039 C 
DOCKED: BRANCH  35  36
DOCKED: ATOM     36  CBD HEM A1501      52.618  83.352  12.913 -0.52 +0.11    +0.102 C 
DOCKED: BRANCH  36  37
DOCKED: ATOM     37  CGD HEM A1501      52.321  84.838  12.833 -0.38 +0.29    +0.186 C 
DOCKED: ATOM     38  O1D HEM A1501      53.008  85.420  11.966 -0.39 -1.57    -0.647 OA
DOCKED: ATOM     39  O2D HEM A1501      51.405  85.419  13.568 -0.67 -0.99    -0.647 OA
DOCKED: ENDBRANCH  36  37
DOCKED: ENDBRANCH  35  36
DOCKED: ENDBRANCH  22  35
DOCKED: BRANCH  17  40
DOCKED: ATOM     40  CAC HEM A1501      56.013  75.909  16.075 -0.57 +0.00    +0.001 C 
DOCKED: ATOM     41  CBC HEM A1501      55.188  75.513  17.057 -0.65 +0.00    +0.000 C 
DOCKED: ENDBRANCH  17  40
DOCKED: BRANCH  12  42
DOCKED: ATOM     42  CAB HEM A1501      55.313  72.520   9.021 -0.56 +0.00    +0.001 C 
DOCKED: ATOM     43  CBB HEM A1501      55.904  71.816   9.966 -0.58 +0.00    +0.000 C 
DOCKED: ENDBRANCH  12  42
DOCKED: TORSDOF 8
DOCKED: TER
DOCKED: ENDMDL
________________________________________________________________________________


	BEGINNING GENETIC ALGORITHM DOCKING 54 of 100
Run: 54 Seed: 1834783730 1244500898 [ Run 54 of 100 GA/GALS ]
Beginning LAMARCKIAN GENETIC ALGORITHM (LGA), with a maximum of 2500000 energy evaluations.

Final-Value: -22.397


	FINAL GENETIC ALGORITHM DOCKED STATE
	_______________________________________________


Detailed state:  trans 55.063 78.422 10.321 quatxyzw -0.144103 0.984327 -0.093934 0.038883 center 54.495 78.699 10.493 ntor 8 118.2630 92.8905 137.1225 103.9439 28.3026 -13.0215 155.8730 138.1603
State:	 55.063  78.422  10.321  -0.144  0.985 -0.094 175.543    118.26   92.89  137.12  103.94   28.30  -13.02  155.87  138.16

DOCKED: MODEL       54
DOCKED: USER    Run = 54
DOCKED: USER    DPF = C:/Users/georg/Desktop/fall2024/4-Computational_Biology/Assignment/executables/HEM.dpf
DOCKED: USER  
DOCKED: USER    Estimated Free Energy of Binding    =  -19.45 kcal/mol  [=(1)+(2)+(3)-(4)]
DOCKED: USER    Estimated Inhibition Constant, Ki   =    5.54 fM (femtomolar)  [Temperature = 298.15 K]
DOCKED: USER    
DOCKED: USER    (1) Final Intermolecular Energy     =  -21.84 kcal/mol
DOCKED: USER        vdW + Hbond + desolv Energy     =  -17.60 kcal/mol
DOCKED: USER        Electrostatic Energy            =   -4.23 kcal/mol
DOCKED: USER    (2) Final Total Internal Energy     =   -0.56 kcal/mol
DOCKED: USER    (3) Torsional Free Energy           =   +2.39 kcal/mol
DOCKED: USER    (4) Unbound System's Energy  [=(2)] =   -0.56 kcal/mol
DOCKED: USER    
DOCKED: USER    
DOCKED: USER    NEWDPF move HEM.pdbqt
DOCKED: USER    NEWDPF about 54.495000 78.699000 10.493000
DOCKED: USER    NEWDPF tran0 55.063006 78.422333 10.320988
DOCKED: USER    NEWDPF quaternion0 -0.144103 0.984327 -0.093934 0.038883
DOCKED: USER    NEWDPF axisangle0 -0.144212 0.985072 -0.094005 175.543215
DOCKED: USER    NEWDPF quat0 -0.144212 0.985072 -0.094005 175.543215
DOCKED: USER    NEWDPF dihe0 118.26 92.89 137.12 103.94 28.30 -13.02 155.87 138.16 
DOCKED: USER  keepresnum = 1 
DOCKED: USER  
DOCKED: REMARK  8 active torsions:
DOCKED: REMARK  status: ('A' for Active; 'I' for Inactive)
DOCKED: REMARK    1  A    between atoms: C2A_3624  and  CAA_3628 
DOCKED: REMARK    2  A    between atoms: CAA_3628  and  CBA_3629 
DOCKED: REMARK    3  A    between atoms: CBA_3629  and  CGA_3630 
DOCKED: REMARK    4  A    between atoms: C3B_3635  and  CAB_3638 
DOCKED: REMARK    5  A    between atoms: C3C_3642  and  CAC_3645 
DOCKED: REMARK    6  A    between atoms: C3D_3649  and  CAD_3652 
DOCKED: REMARK    7  A    between atoms: CAD_3652  and  CBD_3653 
DOCKED: REMARK    8  A    between atoms: CBD_3653  and  CGD_3654 
DOCKED: USER                              x       y       z     vdW  Elec       q    Type
DOCKED: USER                           _______ _______ _______ _____ _____    ______ ____
DOCKED: ROOT
DOCKED: ATOM      1  CHA HEM A1501      54.469  80.716  10.312 -0.25 +0.04    +0.038 A 
DOCKED: ATOM      2  CHB HEM A1501      54.230  77.203   7.034 -0.42 +0.03    +0.038 A 
DOCKED: ATOM      3  CHC HEM A1501      55.291  73.936  10.423 -0.43 +0.01    +0.038 A 
DOCKED: ATOM      4  CHD HEM A1501      55.595  77.461  13.693 -0.34 +0.02    +0.038 A 
DOCKED: ATOM      5  C1A HEM A1501      54.335  80.047   9.100 -0.26 +0.07    +0.079 A 
DOCKED: ATOM      6  C2A HEM A1501      54.054  80.646   7.791 -0.36 -0.01    -0.006 A 
DOCKED: ATOM      7  C3A HEM A1501      53.992  79.657   6.911 -0.38 -0.01    -0.007 A 
DOCKED: ATOM      8  C4A HEM A1501      54.238  78.447   7.634 -0.35 +0.06    +0.079 A 
DOCKED: ATOM      9  CMA HEM A1501      53.738  79.764   5.438 -0.46 +0.03    +0.032 C 
DOCKED: ATOM     10  C1B HEM A1501      54.467  75.995   7.664 -0.40 +0.05    +0.079 A 
DOCKED: ATOM     11  C2B HEM A1501      54.428  74.704   6.988 -0.51 -0.00    -0.003 A 
DOCKED: ATOM     12  C3B HEM A1501      54.712  73.787   7.949 -0.46 +0.01    +0.015 A 
DOCKED: ATOM     13  C4B HEM A1501      54.946  74.519   9.191 -0.39 +0.03    +0.083 A 
DOCKED: ATOM     14  CMB HEM A1501      54.123  74.506   5.528 -0.63 +0.02    +0.033 C 
DOCKED: ATOM     15  C1C HEM A1501      55.508  74.559  11.622 -0.37 +0.03    +0.079 A 
DOCKED: ATOM     16  C2C HEM A1501      55.942  73.912  12.829 -0.39 -0.00    -0.003 A 
DOCKED: ATOM     17  C3C HEM A1501      56.051  74.889  13.765 -0.42 +0.01    +0.015 A 
DOCKED: ATOM     18  C4C HEM A1501      55.667  76.152  13.106 -0.32 +0.03    +0.083 A 
DOCKED: ATOM     19  CMC HEM A1501      56.200  72.423  12.938 -0.35 +0.01    +0.033 C 
DOCKED: ATOM     20  C1D HEM A1501      55.254  78.691  13.078 -0.27 +0.04    +0.079 A 
DOCKED: ATOM     21  C2D HEM A1501      55.213  79.958  13.742 -0.34 -0.00    -0.007 A 
DOCKED: ATOM     22  C3D HEM A1501      54.895  80.878  12.795 -0.28 -0.00    -0.006 A 
DOCKED: ATOM     23  C4D HEM A1501      54.748  80.167  11.540 -0.20 +0.06    +0.079 A 
DOCKED: ATOM     24  CMD HEM A1501      55.469  80.213  15.174 -0.33 +0.01    +0.032 C 
DOCKED: ATOM     25  NA  HEM A1501      54.473  78.691   8.955 -0.20 -0.19    -0.246 N 
DOCKED: ATOM     26  NB  HEM A1501      54.769  75.843   8.996 -0.23 -0.12    -0.246 N 
DOCKED: ATOM     27  NC  HEM A1501      55.381  75.893  11.828 -0.17 -0.10    -0.246 N 
DOCKED: ATOM     28  ND  HEM A1501      54.976  78.843  11.748 -0.07 -0.15    -0.246 N 
DOCKED: ATOM     29 FE   HEM A1501      54.913  77.319  10.402 -0.07 +0.00    +0.000 Fe
DOCKED: ENDROOT
DOCKED: BRANCH   6  30
DOCKED: ATOM     30  CAA HEM A1501      53.873  82.087   7.467 -0.43 +0.06    +0.039 C 
DOCKED: BRANCH  30  31
DOCKED: ATOM     31  CBA HEM A1501      52.418  82.426   7.211 -0.56 +0.16    +0.102 C 
DOCKED: BRANCH  31  32
DOCKED: ATOM     32  CGA HEM A1501      52.206  83.640   6.349 -0.63 +0.36    +0.186 C 
DOCKED: ATOM     33  O1A HEM A1501      52.931  84.643   6.547 -1.14 -1.77    -0.647 OA
DOCKED: ATOM     34  O2A HEM A1501      51.350  83.582   5.443 -1.05 -1.25    -0.647 OA
DOCKED: ENDBRANCH  31  32
DOCKED: ENDBRANCH  30  31
DOCKED: ENDBRANCH   6  30
DOCKED: BRANCH  22  35
DOCKED: ATOM     35  CAD HEM A1501      54.745  82.327  13.064 -0.31 +0.03    +0.039 C 
DOCKED: BRANCH  35  36
DOCKED: ATOM     36  CBD HEM A1501      53.531  82.918  12.347 -0.42 +0.12    +0.102 C 
DOCKED: BRANCH  36  37
DOCKED: ATOM     37  CGD HEM A1501      53.197  84.325  12.808 -0.42 +0.27    +0.186 C 
DOCKED: ATOM     38  O1D HEM A1501      52.109  84.385  13.421 -0.18 -0.81    -0.647 OA
DOCKED: ATOM     39  O2D HEM A1501      54.001  85.342  12.619 -0.57 -1.37    -0.647 OA
DOCKED: ENDBRANCH  36  37
DOCKED: ENDBRANCH  35  36
DOCKED: ENDBRANCH  22  35
DOCKED: BRANCH  17  40
DOCKED: ATOM     40  CAC HEM A1501      56.458  74.763  15.170 -0.55 +0.00    +0.001 C 
DOCKED: ATOM     41  CBC HEM A1501      55.749  75.132  16.248 -0.58 +0.00    +0.000 C 
DOCKED: ENDBRANCH  17  40
DOCKED: BRANCH  12  42
DOCKED: ATOM     42  CAB HEM A1501      54.808  72.310   7.890 -0.56 +0.00    +0.001 C 
DOCKED: ATOM     43  CBB HEM A1501      55.697  71.535   7.302 -0.56 +0.00    +0.000 C 
DOCKED: ENDBRANCH  12  42
DOCKED: TORSDOF 8
DOCKED: TER
DOCKED: ENDMDL
________________________________________________________________________________


	BEGINNING GENETIC ALGORITHM DOCKING 55 of 100
Run: 55 Seed: 507112105 705493724 [ Run 55 of 100 GA/GALS ]
Beginning LAMARCKIAN GENETIC ALGORITHM (LGA), with a maximum of 2500000 energy evaluations.

Final-Value: -23.219


	FINAL GENETIC ALGORITHM DOCKED STATE
	_______________________________________________


Detailed state:  trans 54.970 78.591 10.096 quatxyzw 0.150006 -0.971776 0.181552 -0.013732 center 54.495 78.699 10.493 ntor 8 148.3899 157.2067 -50.8650 -153.4057 9.6556 3.5548 179.9621 -144.3072
State:	 54.970  78.591  10.096   0.150 -0.972  0.182 -178.426    148.39  157.21  -50.87 -153.41    9.66    3.55  179.96 -144.31

DOCKED: MODEL       55
DOCKED: USER    Run = 55
DOCKED: USER    DPF = C:/Users/georg/Desktop/fall2024/4-Computational_Biology/Assignment/executables/HEM.dpf
DOCKED: USER  
DOCKED: USER    Estimated Free Energy of Binding    =  -20.33 kcal/mol  [=(1)+(2)+(3)-(4)]
DOCKED: USER    Estimated Inhibition Constant, Ki   =    1.25 fM (femtomolar)  [Temperature = 298.15 K]
DOCKED: USER    
DOCKED: USER    (1) Final Intermolecular Energy     =  -22.72 kcal/mol
DOCKED: USER        vdW + Hbond + desolv Energy     =  -18.24 kcal/mol
DOCKED: USER        Electrostatic Energy            =   -4.48 kcal/mol
DOCKED: USER    (2) Final Total Internal Energy     =   -0.50 kcal/mol
DOCKED: USER    (3) Torsional Free Energy           =   +2.39 kcal/mol
DOCKED: USER    (4) Unbound System's Energy  [=(2)] =   -0.50 kcal/mol
DOCKED: USER    
DOCKED: USER    
DOCKED: USER    NEWDPF move HEM.pdbqt
DOCKED: USER    NEWDPF about 54.495000 78.699000 10.493000
DOCKED: USER    NEWDPF tran0 54.970346 78.590680 10.095649
DOCKED: USER    NEWDPF quaternion0 0.150006 -0.971776 0.181552 -0.013732
DOCKED: USER    NEWDPF axisangle0 0.150020 -0.971868 0.181569 -178.426435
DOCKED: USER    NEWDPF quat0 0.150020 -0.971868 0.181569 -178.426435
DOCKED: USER    NEWDPF dihe0 148.39 157.21 -50.87 -153.41 9.66 3.55 179.96 -144.31 
DOCKED: USER  keepresnum = 1 
DOCKED: USER  
DOCKED: REMARK  8 active torsions:
DOCKED: REMARK  status: ('A' for Active; 'I' for Inactive)
DOCKED: REMARK    1  A    between atoms: C2A_3624  and  CAA_3628 
DOCKED: REMARK    2  A    between atoms: CAA_3628  and  CBA_3629 
DOCKED: REMARK    3  A    between atoms: CBA_3629  and  CGA_3630 
DOCKED: REMARK    4  A    between atoms: C3B_3635  and  CAB_3638 
DOCKED: REMARK    5  A    between atoms: C3C_3642  and  CAC_3645 
DOCKED: REMARK    6  A    between atoms: C3D_3649  and  CAD_3652 
DOCKED: REMARK    7  A    between atoms: CAD_3652  and  CBD_3653 
DOCKED: REMARK    8  A    between atoms: CBD_3653  and  CGD_3654 
DOCKED: USER                              x       y       z     vdW  Elec       q    Type
DOCKED: USER                           _______ _______ _______ _____ _____    ______ ____
DOCKED: ROOT
DOCKED: ATOM      1  CHA HEM A1501      54.331  80.830   9.662 -0.28 +0.04    +0.038 A 
DOCKED: ATOM      2  CHB HEM A1501      54.411  76.818   7.009 -0.43 +0.02    +0.038 A 
DOCKED: ATOM      3  CHC HEM A1501      55.282  74.193  10.963 -0.41 +0.01    +0.038 A 
DOCKED: ATOM      4  CHD HEM A1501      55.269  78.218  13.610 -0.34 +0.02    +0.038 A 
DOCKED: ATOM      5  C1A HEM A1501      54.302  79.966   8.572 -0.28 +0.07    +0.079 A 
DOCKED: ATOM      6  C2A HEM A1501      54.108  80.331   7.165 -0.36 -0.01    -0.006 A 
DOCKED: ATOM      7  C3A HEM A1501      54.131  79.209   6.461 -0.39 -0.01    -0.007 A 
DOCKED: ATOM      8  C4A HEM A1501      54.348  78.144   7.392 -0.35 +0.06    +0.079 A 
DOCKED: ATOM      9  CMA HEM A1501      53.986  79.062   4.977 -0.46 +0.02    +0.032 C 
DOCKED: ATOM     10  C1B HEM A1501      54.624  75.739   7.847 -0.40 +0.04    +0.079 A 
DOCKED: ATOM     11  C2B HEM A1501      54.663  74.353   7.396 -0.49 -0.00    -0.003 A 
DOCKED: ATOM     12  C3B HEM A1501      54.893  73.618   8.515 -0.46 +0.01    +0.015 A 
DOCKED: ATOM     13  C4B HEM A1501      55.018  74.552   9.630 -0.39 +0.03    +0.083 A 
DOCKED: ATOM     14  CMB HEM A1501      54.471  73.907   5.972 -0.60 +0.02    +0.033 C 
DOCKED: ATOM     15  C1C HEM A1501      55.397  75.013  12.052 -0.35 +0.03    +0.079 A 
DOCKED: ATOM     16  C2C HEM A1501      55.752  74.588  13.379 -0.43 -0.00    -0.003 A 
DOCKED: ATOM     17  C3C HEM A1501      55.772  75.710  14.143 -0.38 +0.01    +0.015 A 
DOCKED: ATOM     18  C4C HEM A1501      55.411  76.834  13.257 -0.29 +0.04    +0.083 A 
DOCKED: ATOM     19  CMC HEM A1501      56.032  73.147  13.753 -0.53 +0.01    +0.033 C 
DOCKED: ATOM     20  C1D HEM A1501      54.950  79.318  12.775 -0.26 +0.05    +0.079 A 
DOCKED: ATOM     21  C2D HEM A1501      54.833  80.675  13.213 -0.32 -0.00    -0.007 A 
DOCKED: ATOM     22  C3D HEM A1501      54.568  81.415  12.106 -0.28 -0.01    -0.006 A 
DOCKED: ATOM     23  C4D HEM A1501      54.530  80.501  10.980 -0.21 +0.07    +0.079 A 
DOCKED: ATOM     24  CMD HEM A1501      54.976  81.172  14.597 -0.42 +0.02    +0.032 C 
DOCKED: ATOM     25  NA  HEM A1501      54.478  78.610   8.666 -0.21 -0.19    -0.246 N 
DOCKED: ATOM     26  NB  HEM A1501      54.829  75.819   9.204 -0.22 -0.12    -0.246 N 
DOCKED: ATOM     27  NC  HEM A1501      55.227  76.358  12.024 -0.08 -0.10    -0.246 N 
DOCKED: ATOM     28  ND  HEM A1501      54.768  79.238  11.423 -0.08 -0.17    -0.246 N 
DOCKED: ATOM     29 FE   HEM A1501      54.837  77.512  10.350 -0.07 +0.00    +0.000 Fe
DOCKED: ENDROOT
DOCKED: BRANCH   6  30
DOCKED: ATOM     30  CAA HEM A1501      53.922  81.692   6.592 -0.45 +0.05    +0.039 C 
DOCKED: BRANCH  30  31
DOCKED: ATOM     31  CBA HEM A1501      52.487  82.164   6.723 -0.57 +0.15    +0.102 C 
DOCKED: BRANCH  31  32
DOCKED: ATOM     32  CGA HEM A1501      52.202  83.476   6.045 -0.64 +0.33    +0.186 C 
DOCKED: ATOM     33  O1A HEM A1501      51.210  83.548   5.283 -1.11 -1.26    -0.647 OA
DOCKED: ATOM     34  O2A HEM A1501      52.937  84.450   6.304 -1.21 -1.59    -0.647 OA
DOCKED: ENDBRANCH  31  32
DOCKED: ENDBRANCH  30  31
DOCKED: ENDBRANCH   6  30
DOCKED: BRANCH  22  35
DOCKED: ATOM     35  CAD HEM A1501      54.368  82.883  12.117 -0.35 +0.05    +0.039 C 
DOCKED: BRANCH  35  36
DOCKED: ATOM     36  CBD HEM A1501      53.192  83.293  13.003 -0.48 +0.11    +0.102 C 
DOCKED: BRANCH  36  37
DOCKED: ATOM     37  CGD HEM A1501      52.881  84.776  12.926 -0.37 +0.29    +0.186 C 
DOCKED: ATOM     38  O1D HEM A1501      53.762  85.421  12.316 -0.53 -1.56    -0.647 OA
DOCKED: ATOM     39  O2D HEM A1501      51.779  85.295  13.409 -0.47 -1.01    -0.647 OA
DOCKED: ENDBRANCH  36  37
DOCKED: ENDBRANCH  35  36
DOCKED: ENDBRANCH  22  35
DOCKED: BRANCH  17  40
DOCKED: ATOM     40  CAC HEM A1501      56.075  75.832  15.574 -0.53 +0.00    +0.001 C 
DOCKED: ATOM     41  CBC HEM A1501      55.195  75.803  16.587 -0.59 +0.00    +0.000 C 
DOCKED: ENDBRANCH  17  40
DOCKED: BRANCH  12  42
DOCKED: ATOM     42  CAB HEM A1501      55.023  72.156   8.710 -0.57 +0.00    +0.001 C 
DOCKED: ATOM     43  CBB HEM A1501      55.919  71.460   9.383 -0.57 +0.00    +0.000 C 
DOCKED: ENDBRANCH  12  42
DOCKED: TORSDOF 8
DOCKED: TER
DOCKED: ENDMDL
________________________________________________________________________________


	BEGINNING GENETIC ALGORITHM DOCKING 56 of 100
Run: 56 Seed: 144460042 829838756 [ Run 56 of 100 GA/GALS ]
Beginning LAMARCKIAN GENETIC ALGORITHM (LGA), with a maximum of 2500000 energy evaluations.

Final-Value: -23.228


	FINAL GENETIC ALGORITHM DOCKED STATE
	_______________________________________________


Detailed state:  trans 54.952 78.761 10.413 quatxyzw -0.164095 0.973570 -0.158320 -0.013022 center 54.495 78.699 10.493 ntor 8 127.4529 40.4462 -43.1942 -113.9005 14.1984 -22.6077 175.3608 178.0732
State:	 54.952  78.761  10.413  -0.164  0.974 -0.158 -178.508    127.45   40.45  -43.19 -113.90   14.20  -22.61  175.36  178.07

DOCKED: MODEL       56
DOCKED: USER    Run = 56
DOCKED: USER    DPF = C:/Users/georg/Desktop/fall2024/4-Computational_Biology/Assignment/executables/HEM.dpf
DOCKED: USER  
DOCKED: USER    Estimated Free Energy of Binding    =  -20.26 kcal/mol  [=(1)+(2)+(3)-(4)]
DOCKED: USER    Estimated Inhibition Constant, Ki   =    1.40 fM (femtomolar)  [Temperature = 298.15 K]
DOCKED: USER    
DOCKED: USER    (1) Final Intermolecular Energy     =  -22.65 kcal/mol
DOCKED: USER        vdW + Hbond + desolv Energy     =  -18.36 kcal/mol
DOCKED: USER        Electrostatic Energy            =   -4.29 kcal/mol
DOCKED: USER    (2) Final Total Internal Energy     =   -0.58 kcal/mol
DOCKED: USER    (3) Torsional Free Energy           =   +2.39 kcal/mol
DOCKED: USER    (4) Unbound System's Energy  [=(2)] =   -0.58 kcal/mol
DOCKED: USER    
DOCKED: USER    
DOCKED: USER    NEWDPF move HEM.pdbqt
DOCKED: USER    NEWDPF about 54.495000 78.699000 10.493000
DOCKED: USER    NEWDPF tran0 54.951811 78.760879 10.413060
DOCKED: USER    NEWDPF quaternion0 -0.164095 0.973570 -0.158320 -0.013022
DOCKED: USER    NEWDPF axisangle0 -0.164109 0.973652 -0.158333 -178.507764
DOCKED: USER    NEWDPF quat0 -0.164109 0.973652 -0.158333 -178.507764
DOCKED: USER    NEWDPF dihe0 127.45 40.45 -43.19 -113.90 14.20 -22.61 175.36 178.07 
DOCKED: USER  keepresnum = 1 
DOCKED: USER  
DOCKED: REMARK  8 active torsions:
DOCKED: REMARK  status: ('A' for Active; 'I' for Inactive)
DOCKED: REMARK    1  A    between atoms: C2A_3624  and  CAA_3628 
DOCKED: REMARK    2  A    between atoms: CAA_3628  and  CBA_3629 
DOCKED: REMARK    3  A    between atoms: CBA_3629  and  CGA_3630 
DOCKED: REMARK    4  A    between atoms: C3B_3635  and  CAB_3638 
DOCKED: REMARK    5  A    between atoms: C3C_3642  and  CAC_3645 
DOCKED: REMARK    6  A    between atoms: C3D_3649  and  CAD_3652 
DOCKED: REMARK    7  A    between atoms: CAD_3652  and  CBD_3653 
DOCKED: REMARK    8  A    between atoms: CBD_3653  and  CGD_3654 
DOCKED: USER                              x       y       z     vdW  Elec       q    Type
DOCKED: USER                           _______ _______ _______ _____ _____    ______ ____
DOCKED: ROOT
DOCKED: ATOM      1  CHA HEM A1501      54.248  80.997  10.074 -0.27 +0.04    +0.038 A 
DOCKED: ATOM      2  CHB HEM A1501      54.579  77.142   7.216 -0.40 +0.03    +0.038 A 
DOCKED: ATOM      3  CHC HEM A1501      55.392  74.335  11.056 -0.41 +0.01    +0.038 A 
DOCKED: ATOM      4  CHD HEM A1501      55.127  78.207  13.912 -0.38 +0.02    +0.038 A 
DOCKED: ATOM      5  C1A HEM A1501      54.293  80.194   8.939 -0.27 +0.08    +0.079 A 
DOCKED: ATOM      6  C2A HEM A1501      54.140  80.628   7.547 -0.35 -0.01    -0.006 A 
DOCKED: ATOM      7  C3A HEM A1501      54.233  79.548   6.785 -0.37 -0.01    -0.007 A 
DOCKED: ATOM      8  C4A HEM A1501      54.452  78.441   7.666 -0.33 +0.06    +0.079 A 
DOCKED: ATOM      9  CMA HEM A1501      54.151  79.478   5.291 -0.50 +0.03    +0.032 C 
DOCKED: ATOM     10  C1B HEM A1501      54.799  76.026   8.003 -0.38 +0.04    +0.079 A 
DOCKED: ATOM     11  C2B HEM A1501      54.906  74.670   7.480 -0.48 -0.00    -0.003 A 
DOCKED: ATOM     12  C3B HEM A1501      55.120  73.883   8.567 -0.45 +0.01    +0.015 A 
DOCKED: ATOM     13  C4B HEM A1501      55.167  74.758   9.734 -0.38 +0.03    +0.083 A 
DOCKED: ATOM     14  CMB HEM A1501      54.787  74.296   6.028 -0.59 +0.02    +0.033 C 
DOCKED: ATOM     15  C1C HEM A1501      55.434  75.098  12.192 -0.35 +0.03    +0.079 A 
DOCKED: ATOM     16  C2C HEM A1501      55.753  74.614  13.507 -0.43 -0.00    -0.003 A 
DOCKED: ATOM     17  C3C HEM A1501      55.701  75.692  14.330 -0.38 +0.01    +0.015 A 
DOCKED: ATOM     18  C4C HEM A1501      55.334  76.850  13.491 -0.31 +0.03    +0.083 A 
DOCKED: ATOM     19  CMC HEM A1501      56.071  73.165  13.814 -0.54 +0.01    +0.033 C 
DOCKED: ATOM     20  C1D HEM A1501      54.800  79.338  13.125 -0.30 +0.05    +0.079 A 
DOCKED: ATOM     21  C2D HEM A1501      54.616  80.665  13.630 -0.38 -0.00    -0.007 A 
DOCKED: ATOM     22  C3D HEM A1501      54.367  81.454  12.553 -0.32 -0.00    -0.006 A 
DOCKED: ATOM     23  C4D HEM A1501      54.407  80.604  11.380 -0.21 +0.07    +0.079 A 
DOCKED: ATOM     24  CMD HEM A1501      54.687  81.090  15.042 -0.46 +0.01    +0.032 C 
DOCKED: ATOM     25  NA  HEM A1501      54.515  78.842   8.968 -0.19 -0.19    -0.246 N 
DOCKED: ATOM     26  NB  HEM A1501      54.948  76.039   9.369 -0.18 -0.12    -0.246 N 
DOCKED: ATOM     27  NC  HEM A1501      55.216  76.436  12.228 -0.11 -0.10    -0.246 N 
DOCKED: ATOM     28  ND  HEM A1501      54.674  79.327  11.764 -0.08 -0.17    -0.246 N 
DOCKED: ATOM     29 FE   HEM A1501      54.849  77.666  10.604 -0.07 +0.00    +0.000 Fe
DOCKED: ENDROOT
DOCKED: BRANCH   6  30
DOCKED: ATOM     30  CAA HEM A1501      53.927  82.011   7.040 -0.44 +0.05    +0.039 C 
DOCKED: BRANCH  30  31
DOCKED: ATOM     31  CBA HEM A1501      52.457  82.385   7.033 -0.57 +0.16    +0.102 C 
DOCKED: BRANCH  31  32
DOCKED: ATOM     32  CGA HEM A1501      52.148  83.668   6.312 -0.63 +0.36    +0.186 C 
DOCKED: ATOM     33  O1A HEM A1501      51.138  83.706   5.572 -1.00 -1.33    -0.647 OA
DOCKED: ATOM     34  O2A HEM A1501      52.883  84.656   6.518 -1.14 -1.76    -0.647 OA
DOCKED: ENDBRANCH  31  32
DOCKED: ENDBRANCH  30  31
DOCKED: ENDBRANCH   6  30
DOCKED: BRANCH  22  35
DOCKED: ATOM     35  CAD HEM A1501      54.113  82.912  12.634 -0.40 +0.04    +0.039 C 
DOCKED: BRANCH  35  36
DOCKED: ATOM     36  CBD HEM A1501      52.619  83.233  12.619 -0.49 +0.12    +0.102 C 
DOCKED: BRANCH  36  37
DOCKED: ATOM     37  CGD HEM A1501      52.301  84.604  13.186 -0.50 +0.25    +0.186 C 
DOCKED: ATOM     38  O1D HEM A1501      53.234  85.421  13.020 -0.59 -1.29    -0.647 OA
DOCKED: ATOM     39  O2D HEM A1501      51.150  84.894  13.739 -0.47 -0.84    -0.647 OA
DOCKED: ENDBRANCH  36  37
DOCKED: ENDBRANCH  35  36
DOCKED: ENDBRANCH  22  35
DOCKED: BRANCH  17  40
DOCKED: ATOM     40  CAC HEM A1501      55.943  75.745  15.777 -0.55 +0.00    +0.001 C 
DOCKED: ATOM     41  CBC HEM A1501      55.042  76.020  16.733 -0.59 +0.00    +0.000 C 
DOCKED: ENDBRANCH  17  40
DOCKED: BRANCH  12  42
DOCKED: ATOM     42  CAB HEM A1501      55.297  72.417   8.689 -0.55 +0.00    +0.001 C 
DOCKED: ATOM     43  CBB HEM A1501      55.583  71.512   7.775 -0.55 +0.00    +0.000 C 
DOCKED: ENDBRANCH  12  42
DOCKED: TORSDOF 8
DOCKED: TER
DOCKED: ENDMDL
________________________________________________________________________________


	BEGINNING GENETIC ALGORITHM DOCKING 57 of 100
Run: 57 Seed: 371644974 810652412 [ Run 57 of 100 GA/GALS ]
Beginning LAMARCKIAN GENETIC ALGORITHM (LGA), with a maximum of 2500000 energy evaluations.

Final-Value: -23.607


	FINAL GENETIC ALGORITHM DOCKED STATE
	_______________________________________________


Detailed state:  trans 54.338 78.913 10.698 quatxyzw 0.020419 -0.017845 0.014292 -0.999530 center 54.495 78.699 10.493 ntor 8 0.8048 -25.3965 9.4067 -179.8105 26.1240 19.7179 7.5459 3.6312
State:	 54.338  78.913  10.698   0.666 -0.582  0.466 -3.513      0.80  -25.40    9.41 -179.81   26.12   19.72    7.55    3.63

DOCKED: MODEL       57
DOCKED: USER    Run = 57
DOCKED: USER    DPF = C:/Users/georg/Desktop/fall2024/4-Computational_Biology/Assignment/executables/HEM.dpf
DOCKED: USER  
DOCKED: USER    Estimated Free Energy of Binding    =  -20.65 kcal/mol  [=(1)+(2)+(3)-(4)]
DOCKED: USER    Estimated Inhibition Constant, Ki   =  725.61 aM (attomolar)  [Temperature = 298.15 K]
DOCKED: USER    
DOCKED: USER    (1) Final Intermolecular Energy     =  -23.04 kcal/mol
DOCKED: USER        vdW + Hbond + desolv Energy     =  -18.65 kcal/mol
DOCKED: USER        Electrostatic Energy            =   -4.39 kcal/mol
DOCKED: USER    (2) Final Total Internal Energy     =   -0.57 kcal/mol
DOCKED: USER    (3) Torsional Free Energy           =   +2.39 kcal/mol
DOCKED: USER    (4) Unbound System's Energy  [=(2)] =   -0.57 kcal/mol
DOCKED: USER    
DOCKED: USER    
DOCKED: USER    NEWDPF move HEM.pdbqt
DOCKED: USER    NEWDPF about 54.495000 78.699000 10.493000
DOCKED: USER    NEWDPF tran0 54.337678 78.912747 10.697850
DOCKED: USER    NEWDPF quaternion0 0.020419 -0.017845 0.014292 -0.999530
DOCKED: USER    NEWDPF axisangle0 0.666117 -0.582149 0.466252 -3.513208
DOCKED: USER    NEWDPF quat0 0.666117 -0.582149 0.466252 -3.513208
DOCKED: USER    NEWDPF dihe0 0.80 -25.40 9.41 -179.81 26.12 19.72 7.55 3.63 
DOCKED: USER  keepresnum = 1 
DOCKED: USER  
DOCKED: REMARK  8 active torsions:
DOCKED: REMARK  status: ('A' for Active; 'I' for Inactive)
DOCKED: REMARK    1  A    between atoms: C2A_3624  and  CAA_3628 
DOCKED: REMARK    2  A    between atoms: CAA_3628  and  CBA_3629 
DOCKED: REMARK    3  A    between atoms: CBA_3629  and  CGA_3630 
DOCKED: REMARK    4  A    between atoms: C3B_3635  and  CAB_3638 
DOCKED: REMARK    5  A    between atoms: C3C_3642  and  CAC_3645 
DOCKED: REMARK    6  A    between atoms: C3D_3649  and  CAD_3652 
DOCKED: REMARK    7  A    between atoms: CAD_3652  and  CBD_3653 
DOCKED: REMARK    8  A    between atoms: CBD_3653  and  CGD_3654 
DOCKED: USER                              x       y       z     vdW  Elec       q    Type
DOCKED: USER                           _______ _______ _______ _____ _____    ______ ____
DOCKED: ROOT
DOCKED: ATOM      1  CHA HEM A1501      54.217  81.257  10.378 -0.28 +0.04    +0.038 A 
DOCKED: ATOM      2  CHB HEM A1501      55.016  78.457  14.207 -0.40 +0.02    +0.038 A 
DOCKED: ATOM      3  CHC HEM A1501      55.469  74.610  11.330 -0.40 +0.01    +0.038 A 
DOCKED: ATOM      4  CHD HEM A1501      54.603  77.403   7.500 -0.38 +0.03    +0.038 A 
DOCKED: ATOM      5  C1A HEM A1501      54.368  80.828  11.693 -0.24 +0.07    +0.079 A 
DOCKED: ATOM      6  C2A HEM A1501      54.268  81.650  12.903 -0.35 -0.00    -0.006 A 
DOCKED: ATOM      7  C3A HEM A1501      54.495  80.855  13.938 -0.41 -0.00    -0.007 A 
DOCKED: ATOM      8  C4A HEM A1501      54.725  79.546  13.409 -0.33 +0.05    +0.079 A 
DOCKED: ATOM      9  CMA HEM A1501      54.492  81.227  15.390 -0.45 +0.01    +0.032 C 
DOCKED: ATOM     10  C1B HEM A1501      55.241  77.164  13.770 -0.33 +0.03    +0.079 A 
DOCKED: ATOM     11  C2B HEM A1501      55.564  76.051  14.653 -0.40 -0.00    -0.003 A 
DOCKED: ATOM     12  C3B HEM A1501      55.706  74.974  13.837 -0.40 +0.01    +0.015 A 
DOCKED: ATOM     13  C4B HEM A1501      55.446  75.427  12.473 -0.33 +0.03    +0.083 A 
DOCKED: ATOM     14  CMB HEM A1501      55.702  76.152  16.148 -0.55 +0.01    +0.033 C 
DOCKED: ATOM     15  C1C HEM A1501      55.250  74.972  10.028 -0.37 +0.03    +0.079 A 
DOCKED: ATOM     16  C2C HEM A1501      55.205  74.069   8.910 -0.46 -0.00    -0.003 A 
DOCKED: ATOM     17  C3C HEM A1501      54.945  74.832   7.817 -0.46 +0.01    +0.015 A 
DOCKED: ATOM     18  C4C HEM A1501      54.839  76.226   8.289 -0.35 +0.05    +0.083 A 
DOCKED: ATOM     19  CMC HEM A1501      55.419  72.574   9.029 -0.52 +0.01    +0.033 C 
DOCKED: ATOM     20  C1D HEM A1501      54.472  78.746   7.930 -0.31 +0.06    +0.079 A 
DOCKED: ATOM     21  C2D HEM A1501      54.230  79.864   7.069 -0.36 -0.01    -0.007 A 
DOCKED: ATOM     22  C3D HEM A1501      54.121  80.952   7.874 -0.35 -0.01    -0.006 A 
DOCKED: ATOM     23  C4D HEM A1501      54.292  80.493   9.239 -0.26 +0.08    +0.079 A 
DOCKED: ATOM     24  CMD HEM A1501      54.117  79.837   5.597 -0.48 +0.03    +0.032 C 
DOCKED: ATOM     25  NA  HEM A1501      54.620  79.529  12.049 -0.13 -0.17    -0.246 N 
DOCKED: ATOM     26  NB  HEM A1501      55.192  76.753  12.459 -0.12 -0.11    -0.246 N 
DOCKED: ATOM     27  NC  HEM A1501      55.003  76.239   9.613 -0.08 -0.12    -0.246 N 
DOCKED: ATOM     28  ND  HEM A1501      54.499  79.150   9.235 -0.18 -0.20    -0.246 N 
DOCKED: ATOM     29 FE   HEM A1501      54.819  77.913  10.818 -0.07 +0.00    +0.000 Fe
DOCKED: ENDROOT
DOCKED: BRANCH   6  30
DOCKED: ATOM     30  CAA HEM A1501      53.965  83.104  12.996 -0.42 +0.04    +0.039 C 
DOCKED: BRANCH  30  31
DOCKED: ATOM     31  CBA HEM A1501      52.556  83.352  13.499 -0.51 +0.10    +0.102 C 
DOCKED: BRANCH  31  32
DOCKED: ATOM     32  CGA HEM A1501      51.997  84.701  13.137 -0.50 +0.26    +0.186 C 
DOCKED: ATOM     33  O1A HEM A1501      50.928  85.066  13.678 -0.66 -0.86    -0.647 OA
DOCKED: ATOM     34  O2A HEM A1501      52.646  85.419  12.348 -0.49 -1.40    -0.647 OA
DOCKED: ENDBRANCH  31  32
DOCKED: ENDBRANCH  30  31
DOCKED: ENDBRANCH   6  30
DOCKED: BRANCH  22  35
DOCKED: ATOM     35  CAD HEM A1501      53.871  82.327   7.382 -0.42 +0.06    +0.039 C 
DOCKED: BRANCH  35  36
DOCKED: ATOM     36  CBD HEM A1501      52.378  82.625   7.252 -0.55 +0.17    +0.102 C 
DOCKED: BRANCH  36  37
DOCKED: ATOM     37  CGD HEM A1501      52.082  83.763   6.293 -0.63 +0.36    +0.186 C 
DOCKED: ATOM     38  O1D HEM A1501      52.940  84.672   6.346 -1.21 -1.72    -0.647 OA
DOCKED: ATOM     39  O2D HEM A1501      51.061  83.751   5.472 -1.01 -1.35    -0.647 OA
DOCKED: ENDBRANCH  36  37
DOCKED: ENDBRANCH  35  36
DOCKED: ENDBRANCH  22  35
DOCKED: BRANCH  17  40
DOCKED: ATOM     40  CAC HEM A1501      54.800  74.402   6.421 -0.61 +0.00    +0.001 C 
DOCKED: ATOM     41  CBC HEM A1501      53.718  74.555   5.642 -0.67 +0.00    +0.000 C 
DOCKED: ENDBRANCH  17  40
DOCKED: BRANCH  12  42
DOCKED: ATOM     42  CAB HEM A1501      56.045  73.564  14.134 -0.57 +0.00    +0.001 C 
DOCKED: ATOM     43  CBB HEM A1501      57.019  73.054  14.861 -0.65 +0.00    +0.000 C 
DOCKED: ENDBRANCH  12  42
DOCKED: TORSDOF 8
DOCKED: TER
DOCKED: ENDMDL
________________________________________________________________________________


	BEGINNING GENETIC ALGORITHM DOCKING 58 of 100
Run: 58 Seed: 362448077 1657177806 [ Run 58 of 100 GA/GALS ]
Beginning LAMARCKIAN GENETIC ALGORITHM (LGA), with a maximum of 2500000 energy evaluations.

Final-Value: -23.259


	FINAL GENETIC ALGORITHM DOCKED STATE
	_______________________________________________


Detailed state:  trans 54.919 78.835 10.531 quatxyzw 0.170051 -0.965896 0.194780 0.013712 center 54.495 78.699 10.493 ntor 8 179.3717 39.9904 162.5004 -140.0708 -3.0324 -30.1717 159.2563 -172.2720
State:	 54.919  78.835  10.531   0.170 -0.966  0.195 178.429    179.37   39.99  162.50 -140.07   -3.03  -30.17  159.26 -172.27

DOCKED: MODEL       58
DOCKED: USER    Run = 58
DOCKED: USER    DPF = C:/Users/georg/Desktop/fall2024/4-Computational_Biology/Assignment/executables/HEM.dpf
DOCKED: USER  
DOCKED: USER    Estimated Free Energy of Binding    =  -20.31 kcal/mol  [=(1)+(2)+(3)-(4)]
DOCKED: USER    Estimated Inhibition Constant, Ki   =    1.31 fM (femtomolar)  [Temperature = 298.15 K]
DOCKED: USER    
DOCKED: USER    (1) Final Intermolecular Energy     =  -22.69 kcal/mol
DOCKED: USER        vdW + Hbond + desolv Energy     =  -18.74 kcal/mol
DOCKED: USER        Electrostatic Energy            =   -3.95 kcal/mol
DOCKED: USER    (2) Final Total Internal Energy     =   -0.57 kcal/mol
DOCKED: USER    (3) Torsional Free Energy           =   +2.39 kcal/mol
DOCKED: USER    (4) Unbound System's Energy  [=(2)] =   -0.57 kcal/mol
DOCKED: USER    
DOCKED: USER    
DOCKED: USER    NEWDPF move HEM.pdbqt
DOCKED: USER    NEWDPF about 54.495000 78.699000 10.493000
DOCKED: USER    NEWDPF tran0 54.918882 78.835005 10.530939
DOCKED: USER    NEWDPF quaternion0 0.170051 -0.965896 0.194780 0.013712
DOCKED: USER    NEWDPF axisangle0 0.170067 -0.965987 0.194798 178.428720
DOCKED: USER    NEWDPF quat0 0.170067 -0.965987 0.194798 178.428720
DOCKED: USER    NEWDPF dihe0 179.37 39.99 162.50 -140.07 -3.03 -30.17 159.26 -172.27 
DOCKED: USER  keepresnum = 1 
DOCKED: USER  
DOCKED: REMARK  8 active torsions:
DOCKED: REMARK  status: ('A' for Active; 'I' for Inactive)
DOCKED: REMARK    1  A    between atoms: C2A_3624  and  CAA_3628 
DOCKED: REMARK    2  A    between atoms: CAA_3628  and  CBA_3629 
DOCKED: REMARK    3  A    between atoms: CBA_3629  and  CGA_3630 
DOCKED: REMARK    4  A    between atoms: C3B_3635  and  CAB_3638 
DOCKED: REMARK    5  A    between atoms: C3C_3642  and  CAC_3645 
DOCKED: REMARK    6  A    between atoms: C3D_3649  and  CAD_3652 
DOCKED: REMARK    7  A    between atoms: CAD_3652  and  CBD_3653 
DOCKED: REMARK    8  A    between atoms: CBD_3653  and  CGD_3654 
DOCKED: USER                              x       y       z     vdW  Elec       q    Type
DOCKED: USER                           _______ _______ _______ _____ _____    ______ ____
DOCKED: ROOT
DOCKED: ATOM      1  CHA HEM A1501      54.190  81.031  10.021 -0.28 +0.04    +0.038 A 
DOCKED: ATOM      2  CHB HEM A1501      54.605  76.981   7.457 -0.39 +0.02    +0.038 A 
DOCKED: ATOM      3  CHC HEM A1501      55.409  74.475  11.502 -0.40 +0.01    +0.038 A 
DOCKED: ATOM      4  CHD HEM A1501      55.059  78.541  14.062 -0.39 +0.02    +0.038 A 
DOCKED: ATOM      5  C1A HEM A1501      54.260  80.147   8.949 -0.27 +0.08    +0.079 A 
DOCKED: ATOM      6  C2A HEM A1501      54.118  80.476   7.527 -0.35 -0.01    -0.006 A 
DOCKED: ATOM      7  C3A HEM A1501      54.233  79.344   6.847 -0.37 -0.01    -0.007 A 
DOCKED: ATOM      8  C4A HEM A1501      54.457  78.308   7.809 -0.33 +0.06    +0.079 A 
DOCKED: ATOM      9  CMA HEM A1501      54.171  79.164   5.361 -0.48 +0.02    +0.032 C 
DOCKED: ATOM     10  C1B HEM A1501      54.831  75.929   8.326 -0.37 +0.04    +0.079 A 
DOCKED: ATOM     11  C2B HEM A1501      54.962  74.540   7.906 -0.47 -0.00    -0.003 A 
DOCKED: ATOM     12  C3B HEM A1501      55.172  73.837   9.050 -0.46 +0.01    +0.015 A 
DOCKED: ATOM     13  C4B HEM A1501      55.194  74.797  10.150 -0.38 +0.03    +0.083 A 
DOCKED: ATOM     14  CMB HEM A1501      54.865  74.059   6.484 -0.57 +0.02    +0.033 C 
DOCKED: ATOM     15  C1C HEM A1501      55.427  75.319  12.579 -0.34 +0.03    +0.079 A 
DOCKED: ATOM     16  C2C HEM A1501      55.736  74.937  13.929 -0.41 -0.00    -0.003 A 
DOCKED: ATOM     17  C3C HEM A1501      55.660  76.072  14.671 -0.39 +0.01    +0.015 A 
DOCKED: ATOM     18  C4C HEM A1501      55.288  77.160  13.745 -0.32 +0.03    +0.083 A 
DOCKED: ATOM     19  CMC HEM A1501      56.069  73.519  14.346 -0.55 +0.01    +0.033 C 
DOCKED: ATOM     20  C1D HEM A1501      54.727  79.607  13.191 -0.31 +0.05    +0.079 A 
DOCKED: ATOM     21  C2D HEM A1501      54.519  80.965  13.595 -0.38 -0.00    -0.007 A 
DOCKED: ATOM     22  C3D HEM A1501      54.274  81.670  12.461 -0.33 -0.01    -0.006 A 
DOCKED: ATOM     23  C4D HEM A1501      54.338  80.736  11.353 -0.21 +0.07    +0.079 A 
DOCKED: ATOM     24  CMD HEM A1501      54.568  81.493  14.973 -0.47 +0.02    +0.032 C 
DOCKED: ATOM     25  NA  HEM A1501      54.499  78.804   9.079 -0.18 -0.19    -0.246 N 
DOCKED: ATOM     26  NB  HEM A1501      54.963  76.045   9.690 -0.10 -0.11    -0.246 N 
DOCKED: ATOM     27  NC  HEM A1501      55.191  76.653  12.514 -0.14 -0.11    -0.246 N 
DOCKED: ATOM     28  ND  HEM A1501      54.618  79.495  11.833 -0.11 -0.17    -0.246 N 
DOCKED: ATOM     29 FE   HEM A1501      54.828  77.756  10.800 -0.07 +0.00    +0.000 Fe
DOCKED: ENDROOT
DOCKED: BRANCH   6  30
DOCKED: ATOM     30  CAA HEM A1501      53.892  81.815   6.918 -0.44 +0.05    +0.039 C 
DOCKED: BRANCH  30  31
DOCKED: ATOM     31  CBA HEM A1501      52.446  82.008   6.507 -0.57 +0.14    +0.102 C 
DOCKED: BRANCH  31  32
DOCKED: ATOM     32  CGA HEM A1501      52.115  83.398   6.038 -0.63 +0.33    +0.186 C 
DOCKED: ATOM     33  O1A HEM A1501      52.915  84.323   6.309 -1.19 -1.52    -0.647 OA
DOCKED: ATOM     34  O2A HEM A1501      51.081  83.565   5.359 -1.08 -1.31    -0.647 OA
DOCKED: ENDBRANCH  31  32
DOCKED: ENDBRANCH  30  31
DOCKED: ENDBRANCH   6  30
DOCKED: BRANCH  22  35
DOCKED: ATOM     35  CAD HEM A1501      53.999  83.126  12.432 -0.41 +0.05    +0.039 C 
DOCKED: BRANCH  35  36
DOCKED: ATOM     36  CBD HEM A1501      52.513  83.431  12.615 -0.47 +0.12    +0.102 C 
DOCKED: BRANCH  36  37
DOCKED: ATOM     37  CGD HEM A1501      52.260  84.784  13.253 -0.48 +0.26    +0.186 C 
DOCKED: ATOM     38  O1D HEM A1501      53.315  85.426  13.454 -0.57 -1.12    -0.647 OA
DOCKED: ATOM     39  O2D HEM A1501      51.057  85.233  13.511 -0.68 -0.92    -0.647 OA
DOCKED: ENDBRANCH  36  37
DOCKED: ENDBRANCH  35  36
DOCKED: ENDBRANCH  22  35
DOCKED: BRANCH  17  40
DOCKED: ATOM     40  CAC HEM A1501      55.884  76.234  16.112 -0.57 +0.00    +0.001 C 
DOCKED: ATOM     41  CBC HEM A1501      55.191  75.654  17.104 -0.66 +0.00    +0.000 C 
DOCKED: ENDBRANCH  17  40
DOCKED: BRANCH  12  42
DOCKED: ATOM     42  CAB HEM A1501      55.367  72.388   9.281 -0.57 +0.00    +0.001 C 
DOCKED: ATOM     43  CBB HEM A1501      55.668  71.420   8.438 -0.55 +0.00    +0.000 C 
DOCKED: ENDBRANCH  12  42
DOCKED: TORSDOF 8
DOCKED: TER
DOCKED: ENDMDL
________________________________________________________________________________


	BEGINNING GENETIC ALGORITHM DOCKING 59 of 100
Run: 59 Seed: 1031985925 377892157 [ Run 59 of 100 GA/GALS ]
Beginning LAMARCKIAN GENETIC ALGORITHM (LGA), with a maximum of 2500000 energy evaluations.

Final-Value: -21.630


	FINAL GENETIC ALGORITHM DOCKED STATE
	_______________________________________________


Detailed state:  trans 54.398 78.392 10.254 quatxyzw -0.015661 -0.006505 0.017721 -0.999699 center 54.495 78.699 10.493 ntor 8 -33.7843 -13.5434 -82.4046 -176.8638 49.7439 -19.0367 173.7140 -6.4135
State:	 54.398  78.392  10.254  -0.639 -0.265  0.722 -2.811    -33.78  -13.54  -82.40 -176.86   49.74  -19.04  173.71   -6.41

DOCKED: MODEL       59
DOCKED: USER    Run = 59
DOCKED: USER    DPF = C:/Users/georg/Desktop/fall2024/4-Computational_Biology/Assignment/executables/HEM.dpf
DOCKED: USER  
DOCKED: USER    Estimated Free Energy of Binding    =  -18.61 kcal/mol  [=(1)+(2)+(3)-(4)]
DOCKED: USER    Estimated Inhibition Constant, Ki   =   22.69 fM (femtomolar)  [Temperature = 298.15 K]
DOCKED: USER    
DOCKED: USER    (1) Final Intermolecular Energy     =  -21.00 kcal/mol
DOCKED: USER        vdW + Hbond + desolv Energy     =  -17.28 kcal/mol
DOCKED: USER        Electrostatic Energy            =   -3.72 kcal/mol
DOCKED: USER    (2) Final Total Internal Energy     =   -0.63 kcal/mol
DOCKED: USER    (3) Torsional Free Energy           =   +2.39 kcal/mol
DOCKED: USER    (4) Unbound System's Energy  [=(2)] =   -0.63 kcal/mol
DOCKED: USER    
DOCKED: USER    
DOCKED: USER    NEWDPF move HEM.pdbqt
DOCKED: USER    NEWDPF about 54.495000 78.699000 10.493000
DOCKED: USER    NEWDPF tran0 54.398348 78.392075 10.254487
DOCKED: USER    NEWDPF quaternion0 -0.015661 -0.006505 0.017721 -0.999699
DOCKED: USER    NEWDPF axisangle0 -0.638507 -0.265189 0.722484 -2.810979
DOCKED: USER    NEWDPF quat0 -0.638507 -0.265189 0.722484 -2.810979
DOCKED: USER    NEWDPF dihe0 -33.78 -13.54 -82.40 -176.86 49.74 -19.04 173.71 -6.41 
DOCKED: USER  keepresnum = 1 
DOCKED: USER  
DOCKED: REMARK  8 active torsions:
DOCKED: REMARK  status: ('A' for Active; 'I' for Inactive)
DOCKED: REMARK    1  A    between atoms: C2A_3624  and  CAA_3628 
DOCKED: REMARK    2  A    between atoms: CAA_3628  and  CBA_3629 
DOCKED: REMARK    3  A    between atoms: CBA_3629  and  CGA_3630 
DOCKED: REMARK    4  A    between atoms: C3B_3635  and  CAB_3638 
DOCKED: REMARK    5  A    between atoms: C3C_3642  and  CAC_3645 
DOCKED: REMARK    6  A    between atoms: C3D_3649  and  CAD_3652 
DOCKED: REMARK    7  A    between atoms: CAD_3652  and  CBD_3653 
DOCKED: REMARK    8  A    between atoms: CBD_3653  and  CGD_3654 
DOCKED: USER                              x       y       z     vdW  Elec       q    Type
DOCKED: USER                           _______ _______ _______ _____ _____    ______ ____
DOCKED: ROOT
DOCKED: ATOM      1  CHA HEM A1501      54.255  80.706   9.768 -0.27 +0.04    +0.038 A 
DOCKED: ATOM      2  CHB HEM A1501      55.154  78.195  13.772 -0.37 +0.02    +0.038 A 
DOCKED: ATOM      3  CHC HEM A1501      55.572  74.153  11.172 -0.41 +0.01    +0.038 A 
DOCKED: ATOM      4  CHD HEM A1501      54.606  76.655   7.170 -0.42 +0.02    +0.038 A 
DOCKED: ATOM      5  C1A HEM A1501      54.437  80.375  11.107 -0.20 +0.07    +0.079 A 
DOCKED: ATOM      6  C2A HEM A1501      54.357  81.282  12.256 -0.31 -0.00    -0.006 A 
DOCKED: ATOM      7  C3A HEM A1501      54.612  80.565  13.342 -0.36 -0.00    -0.007 A 
DOCKED: ATOM      8  C4A HEM A1501      54.839  79.222  12.903 -0.27 +0.05    +0.079 A 
DOCKED: ATOM      9  CMA HEM A1501      54.637  81.042  14.762 -0.46 +0.02    +0.032 C 
DOCKED: ATOM     10  C1B HEM A1501      55.379  76.876  13.425 -0.31 +0.03    +0.079 A 
DOCKED: ATOM     11  C2B HEM A1501      55.728  75.831  14.379 -0.39 -0.00    -0.003 A 
DOCKED: ATOM     12  C3B HEM A1501      55.860  74.699  13.640 -0.42 +0.01    +0.015 A 
DOCKED: ATOM     13  C4B HEM A1501      55.567  75.051  12.253 -0.35 +0.03    +0.083 A 
DOCKED: ATOM     14  CMB HEM A1501      55.897  76.041  15.859 -0.52 +0.01    +0.033 C 
DOCKED: ATOM     15  C1C HEM A1501      55.323  74.418   9.852 -0.39 +0.03    +0.079 A 
DOCKED: ATOM     16  C2C HEM A1501      55.261  73.436   8.804 -0.47 -0.00    -0.003 A 
DOCKED: ATOM     17  C3C HEM A1501      54.972  74.116   7.665 -0.47 +0.01    +0.015 A 
DOCKED: ATOM     18  C4C HEM A1501      54.867  75.540   8.036 -0.38 +0.04    +0.083 A 
DOCKED: ATOM     19  CMC HEM A1501      55.487  71.954   9.027 -0.54 +0.01    +0.033 C 
DOCKED: ATOM     20  C1D HEM A1501      54.475  78.026   7.503 -0.35 +0.06    +0.079 A 
DOCKED: ATOM     21  C2D HEM A1501      54.207  79.077   6.569 -0.38 -0.01    -0.007 A 
DOCKED: ATOM     22  C3D HEM A1501      54.108  80.220   7.296 -0.36 -0.01    -0.006 A 
DOCKED: ATOM     23  C4D HEM A1501      54.310  79.862   8.687 -0.28 +0.07    +0.079 A 
DOCKED: ATOM     24  CMD HEM A1501      54.063  78.942   5.106 -0.48 +0.02    +0.032 C 
DOCKED: ATOM     25  NA  HEM A1501      54.705  79.107  11.551 -0.02 -0.17    -0.246 N 
DOCKED: ATOM     26  NB  HEM A1501      55.304  76.370  12.149 -0.13 -0.10    -0.246 N 
DOCKED: ATOM     27  NC  HEM A1501      55.059  75.650   9.352 -0.24 -0.11    -0.246 N 
DOCKED: ATOM     28  ND  HEM A1501      54.527  78.523   8.775 -0.20 -0.19    -0.246 N 
DOCKED: ATOM     29 FE   HEM A1501      54.889  77.406  10.436 -0.07 +0.00    +0.000 Fe
DOCKED: ENDROOT
DOCKED: BRANCH   6  30
DOCKED: ATOM     30  CAA HEM A1501      54.046  82.738  12.251 -0.40 +0.04    +0.039 C 
DOCKED: BRANCH  30  31
DOCKED: ATOM     31  CBA HEM A1501      55.295  83.577  12.061 -0.23 +0.13    +0.102 C 
DOCKED: BRANCH  31  32
DOCKED: ATOM     32  CGA HEM A1501      55.404  84.746  13.001 -0.25 +0.24    +0.186 C 
DOCKED: ATOM     33  O1A HEM A1501      56.123  84.626  14.019 +0.00 -0.46    -0.647 OA
DOCKED: ATOM     34  O2A HEM A1501      54.810  85.803  12.703 -0.60 -1.35    -0.647 OA
DOCKED: ENDBRANCH  31  32
DOCKED: ENDBRANCH  30  31
DOCKED: ENDBRANCH   6  30
DOCKED: BRANCH  22  35
DOCKED: ATOM     35  CAD HEM A1501      53.838  81.554   6.711 -0.45 +0.05    +0.039 C 
DOCKED: BRANCH  35  36
DOCKED: ATOM     36  CBD HEM A1501      52.361  81.738   6.364 -0.56 +0.14    +0.102 C 
DOCKED: BRANCH  36  37
DOCKED: ATOM     37  CGD HEM A1501      51.978  83.191   6.156 -0.57 +0.33    +0.186 C 
DOCKED: ATOM     38  O1D HEM A1501      52.623  83.969   6.893 -0.77 -1.50    -0.647 OA
DOCKED: ATOM     39  O2D HEM A1501      51.101  83.573   5.261 -1.11 -1.29    -0.647 OA
DOCKED: ENDBRANCH  36  37
DOCKED: ENDBRANCH  35  36
DOCKED: ENDBRANCH  22  35
DOCKED: BRANCH  17  40
DOCKED: ATOM     40  CAC HEM A1501      54.800  73.585   6.307 -0.60 +0.00    +0.001 C 
DOCKED: ATOM     41  CBC HEM A1501      53.674  73.082   5.778 -0.69 +0.00    +0.000 C 
DOCKED: ENDBRANCH  17  40
DOCKED: BRANCH  12  42
DOCKED: ATOM     42  CAB HEM A1501      56.215  73.316  14.031 -0.58 +0.00    +0.001 C 
DOCKED: ATOM     43  CBB HEM A1501      57.072  72.875  14.929 -0.65 +0.00    +0.000 C 
DOCKED: ENDBRANCH  12  42
DOCKED: TORSDOF 8
DOCKED: TER
DOCKED: ENDMDL
________________________________________________________________________________


	BEGINNING GENETIC ALGORITHM DOCKING 60 of 100
Run: 60 Seed: 424720234 631126274 [ Run 60 of 100 GA/GALS ]
Beginning LAMARCKIAN GENETIC ALGORITHM (LGA), with a maximum of 2500000 energy evaluations.

Final-Value: -23.571


	FINAL GENETIC ALGORITHM DOCKED STATE
	_______________________________________________


Detailed state:  trans 54.951 78.885 10.646 quatxyzw -0.165527 0.975394 -0.145619 -0.001244 center 54.495 78.699 10.493 ntor 8 127.3419 43.0841 180.0000 -116.8025 -5.5242 7.5822 137.6085 180.0000
State:	 54.951  78.885  10.646  -0.166  0.975 -0.146 -179.857    127.34   43.08  180.00 -116.80   -5.52    7.58  137.61  180.00

DOCKED: MODEL       60
DOCKED: USER    Run = 60
DOCKED: USER    DPF = C:/Users/georg/Desktop/fall2024/4-Computational_Biology/Assignment/executables/HEM.dpf
DOCKED: USER  
DOCKED: USER    Estimated Free Energy of Binding    =  -20.74 kcal/mol  [=(1)+(2)+(3)-(4)]
DOCKED: USER    Estimated Inhibition Constant, Ki   =  630.58 aM (attomolar)  [Temperature = 298.15 K]
DOCKED: USER    
DOCKED: USER    (1) Final Intermolecular Energy     =  -23.12 kcal/mol
DOCKED: USER        vdW + Hbond + desolv Energy     =  -18.41 kcal/mol
DOCKED: USER        Electrostatic Energy            =   -4.71 kcal/mol
DOCKED: USER    (2) Final Total Internal Energy     =   -0.45 kcal/mol
DOCKED: USER    (3) Torsional Free Energy           =   +2.39 kcal/mol
DOCKED: USER    (4) Unbound System's Energy  [=(2)] =   -0.45 kcal/mol
DOCKED: USER    
DOCKED: USER    
DOCKED: USER    NEWDPF move HEM.pdbqt
DOCKED: USER    NEWDPF about 54.495000 78.699000 10.493000
DOCKED: USER    NEWDPF tran0 54.950743 78.884750 10.645988
DOCKED: USER    NEWDPF quaternion0 -0.165527 0.975394 -0.145619 -0.001244
DOCKED: USER    NEWDPF axisangle0 -0.165527 0.975395 -0.145620 -179.857401
DOCKED: USER    NEWDPF quat0 -0.165527 0.975395 -0.145620 -179.857401
DOCKED: USER    NEWDPF dihe0 127.34 43.08 180.00 -116.80 -5.52 7.58 137.61 180.00 
DOCKED: USER  keepresnum = 1 
DOCKED: USER  
DOCKED: REMARK  8 active torsions:
DOCKED: REMARK  status: ('A' for Active; 'I' for Inactive)
DOCKED: REMARK    1  A    between atoms: C2A_3624  and  CAA_3628 
DOCKED: REMARK    2  A    between atoms: CAA_3628  and  CBA_3629 
DOCKED: REMARK    3  A    between atoms: CBA_3629  and  CGA_3630 
DOCKED: REMARK    4  A    between atoms: C3B_3635  and  CAB_3638 
DOCKED: REMARK    5  A    between atoms: C3C_3642  and  CAC_3645 
DOCKED: REMARK    6  A    between atoms: C3D_3649  and  CAD_3652 
DOCKED: REMARK    7  A    between atoms: CAD_3652  and  CBD_3653 
DOCKED: REMARK    8  A    between atoms: CBD_3653  and  CGD_3654 
DOCKED: USER                              x       y       z     vdW  Elec       q    Type
DOCKED: USER                           _______ _______ _______ _____ _____    ______ ____
DOCKED: ROOT
DOCKED: ATOM      1  CHA HEM A1501      54.241  81.129  10.374 -0.27 +0.04    +0.038 A 
DOCKED: ATOM      2  CHB HEM A1501      54.487  77.335   7.427 -0.40 +0.03    +0.038 A 
DOCKED: ATOM      3  CHC HEM A1501      55.402  74.446  11.182 -0.41 +0.01    +0.038 A 
DOCKED: ATOM      4  CHD HEM A1501      55.221  78.256  14.126 -0.39 +0.02    +0.038 A 
DOCKED: ATOM      5  C1A HEM A1501      54.254  80.349   9.222 -0.26 +0.08    +0.079 A 
DOCKED: ATOM      6  C2A HEM A1501      54.063  80.814   7.844 -0.36 -0.01    -0.006 A 
DOCKED: ATOM      7  C3A HEM A1501      54.133  79.750   7.057 -0.36 -0.01    -0.007 A 
DOCKED: ATOM      8  C4A HEM A1501      54.375  78.625   7.907 -0.33 +0.06    +0.079 A 
DOCKED: ATOM      9  CMA HEM A1501      54.010  79.712   5.564 -0.48 +0.03    +0.032 C 
DOCKED: ATOM     10  C1B HEM A1501      54.728  76.202   8.183 -0.37 +0.05    +0.079 A 
DOCKED: ATOM     11  C2B HEM A1501      54.818  74.857   7.629 -0.48 -0.00    -0.003 A 
DOCKED: ATOM     12  C3B HEM A1501      55.060  74.047   8.692 -0.45 +0.01    +0.015 A 
DOCKED: ATOM     13  C4B HEM A1501      55.141  74.897   9.876 -0.37 +0.03    +0.083 A 
DOCKED: ATOM     14  CMB HEM A1501      54.658  74.515   6.173 -0.59 +0.02    +0.033 C 
DOCKED: ATOM     15  C1C HEM A1501      55.476  75.184  12.332 -0.35 +0.03    +0.079 A 
DOCKED: ATOM     16  C2C HEM A1501      55.830  74.672  13.627 -0.43 -0.00    -0.003 A 
DOCKED: ATOM     17  C3C HEM A1501      55.803  75.732  14.475 -0.39 +0.01    +0.015 A 
DOCKED: ATOM     18  C4C HEM A1501      55.415  76.908  13.671 -0.32 +0.03    +0.083 A 
DOCKED: ATOM     19  CMC HEM A1501      56.155  73.216  13.895 -0.55 +0.01    +0.033 C 
DOCKED: ATOM     20  C1D HEM A1501      54.874  79.404  13.372 -0.32 +0.04    +0.079 A 
DOCKED: ATOM     21  C2D HEM A1501      54.707  80.720  13.910 -0.39 -0.00    -0.007 A 
DOCKED: ATOM     22  C3D HEM A1501      54.430  81.532  12.858 -0.33 -0.00    -0.006 A 
DOCKED: ATOM     23  C4D HEM A1501      54.435  80.707  11.666 -0.23 +0.07    +0.079 A 
DOCKED: ATOM     24  CMD HEM A1501      54.817  81.115  15.329 -0.46 +0.01    +0.032 C 
DOCKED: ATOM     25  NA  HEM A1501      54.475  78.997   9.215 -0.18 -0.20    -0.246 N 
DOCKED: ATOM     26  NB  HEM A1501      54.914  76.186   9.545 -0.08 -0.12    -0.246 N 
DOCKED: ATOM     27  NC  HEM A1501      55.261  76.521  12.403 -0.14 -0.11    -0.246 N 
DOCKED: ATOM     28  ND  HEM A1501      54.712  79.422  12.015 -0.13 -0.17    -0.246 N 
DOCKED: ATOM     29 FE   HEM A1501      54.851  77.786  10.816 -0.07 +0.00    +0.000 Fe
DOCKED: ENDROOT
DOCKED: BRANCH   6  30
DOCKED: ATOM     30  CAA HEM A1501      53.838  82.208   7.373 -0.43 +0.06    +0.039 C 
DOCKED: BRANCH  30  31
DOCKED: ATOM     31  CBA HEM A1501      52.562  82.326   6.562 -0.58 +0.15    +0.102 C 
DOCKED: BRANCH  31  32
DOCKED: ATOM     32  CGA HEM A1501      52.157  83.740   6.247 -0.64 +0.36    +0.186 C 
DOCKED: ATOM     33  O1A HEM A1501      52.892  84.672   6.647 -1.11 -1.81    -0.647 OA
DOCKED: ATOM     34  O2A HEM A1501      51.131  83.924   5.561 -1.00 -1.35    -0.647 OA
DOCKED: ENDBRANCH  31  32
DOCKED: ENDBRANCH  30  31
DOCKED: ENDBRANCH   6  30
DOCKED: BRANCH  22  35
DOCKED: ATOM     35  CAD HEM A1501      54.180  82.988  12.978 -0.39 +0.04    +0.039 C 
DOCKED: BRANCH  35  36
DOCKED: ATOM     36  CBD HEM A1501      52.687  83.307  13.059 -0.52 +0.11    +0.102 C 
DOCKED: BRANCH  36  37
DOCKED: ATOM     37  CGD HEM A1501      52.391  84.791  12.948 -0.42 +0.28    +0.186 C 
DOCKED: ATOM     38  O1D HEM A1501      53.271  85.411  12.311 -0.49 -1.54    -0.647 OA
DOCKED: ATOM     39  O2D HEM A1501      51.301  85.335  13.430 -0.64 -0.98    -0.647 OA
DOCKED: ENDBRANCH  36  37
DOCKED: ENDBRANCH  35  36
DOCKED: ENDBRANCH  22  35
DOCKED: BRANCH  17  40
DOCKED: ATOM     40  CAC HEM A1501      56.085  75.754  15.915 -0.55 +0.00    +0.001 C 
DOCKED: ATOM     41  CBC HEM A1501      55.212  76.011  16.901 -0.65 +0.00    +0.000 C 
DOCKED: ENDBRANCH  17  40
DOCKED: BRANCH  12  42
DOCKED: ATOM     42  CAB HEM A1501      55.238  72.579   8.778 -0.56 +0.00    +0.001 C 
DOCKED: ATOM     43  CBB HEM A1501      55.543  71.699   7.845 -0.55 +0.00    +0.000 C 
DOCKED: ENDBRANCH  12  42
DOCKED: TORSDOF 8
DOCKED: TER
DOCKED: ENDMDL
________________________________________________________________________________


	BEGINNING GENETIC ALGORITHM DOCKING 61 of 100
Run: 61 Seed: 886591125 1326288364 [ Run 61 of 100 GA/GALS ]
Beginning LAMARCKIAN GENETIC ALGORITHM (LGA), with a maximum of 2500000 energy evaluations.

Final-Value: -22.185


	FINAL GENETIC ALGORITHM DOCKED STATE
	_______________________________________________


Detailed state:  trans 54.440 78.573 10.238 quatxyzw -0.022835 -0.022718 -0.001324 -0.999480 center 54.495 78.699 10.493 ntor 8 -0.4994 -32.9774 177.0349 96.1773 20.2494 -47.1867 29.8482 5.5977
State:	 54.440  78.573  10.238  -0.708 -0.705 -0.041 -3.695     -0.50  -32.98  177.03   96.18   20.25  -47.19   29.85    5.60

DOCKED: MODEL       61
DOCKED: USER    Run = 61
DOCKED: USER    DPF = C:/Users/georg/Desktop/fall2024/4-Computational_Biology/Assignment/executables/HEM.dpf
DOCKED: USER  
DOCKED: USER    Estimated Free Energy of Binding    =  -19.44 kcal/mol  [=(1)+(2)+(3)-(4)]
DOCKED: USER    Estimated Inhibition Constant, Ki   =    5.63 fM (femtomolar)  [Temperature = 298.15 K]
DOCKED: USER    
DOCKED: USER    (1) Final Intermolecular Energy     =  -21.83 kcal/mol
DOCKED: USER        vdW + Hbond + desolv Energy     =  -17.36 kcal/mol
DOCKED: USER        Electrostatic Energy            =   -4.46 kcal/mol
DOCKED: USER    (2) Final Total Internal Energy     =   -0.36 kcal/mol
DOCKED: USER    (3) Torsional Free Energy           =   +2.39 kcal/mol
DOCKED: USER    (4) Unbound System's Energy  [=(2)] =   -0.36 kcal/mol
DOCKED: USER    
DOCKED: USER    
DOCKED: USER    NEWDPF move HEM.pdbqt
DOCKED: USER    NEWDPF about 54.495000 78.699000 10.493000
DOCKED: USER    NEWDPF tran0 54.439696 78.572792 10.237789
DOCKED: USER    NEWDPF quaternion0 -0.022835 -0.022718 -0.001324 -0.999480
DOCKED: USER    NEWDPF axisangle0 -0.708320 -0.704697 -0.041054 -3.694877
DOCKED: USER    NEWDPF quat0 -0.708320 -0.704697 -0.041054 -3.694877
DOCKED: USER    NEWDPF dihe0 -0.50 -32.98 177.03 96.18 20.25 -47.19 29.85 5.60 
DOCKED: USER  keepresnum = 1 
DOCKED: USER  
DOCKED: REMARK  8 active torsions:
DOCKED: REMARK  status: ('A' for Active; 'I' for Inactive)
DOCKED: REMARK    1  A    between atoms: C2A_3624  and  CAA_3628 
DOCKED: REMARK    2  A    between atoms: CAA_3628  and  CBA_3629 
DOCKED: REMARK    3  A    between atoms: CBA_3629  and  CGA_3630 
DOCKED: REMARK    4  A    between atoms: C3B_3635  and  CAB_3638 
DOCKED: REMARK    5  A    between atoms: C3C_3642  and  CAC_3645 
DOCKED: REMARK    6  A    between atoms: C3D_3649  and  CAD_3652 
DOCKED: REMARK    7  A    between atoms: CAD_3652  and  CBD_3653 
DOCKED: REMARK    8  A    between atoms: CBD_3653  and  CGD_3654 
DOCKED: USER                              x       y       z     vdW  Elec       q    Type
DOCKED: USER                           _______ _______ _______ _____ _____    ______ ____
DOCKED: ROOT
DOCKED: ATOM      1  CHA HEM A1501      54.400  80.884   9.717 -0.28 +0.04    +0.038 A 
DOCKED: ATOM      2  CHB HEM A1501      55.071  78.398  13.781 -0.37 +0.02    +0.038 A 
DOCKED: ATOM      3  CHC HEM A1501      55.421  74.306  11.248 -0.41 +0.01    +0.038 A 
DOCKED: ATOM      4  CHD HEM A1501      54.683  76.786   7.184 -0.41 +0.02    +0.038 A 
DOCKED: ATOM      5  C1A HEM A1501      54.525  80.564  11.065 -0.21 +0.07    +0.079 A 
DOCKED: ATOM      6  C2A HEM A1501      54.442  81.490  12.200 -0.30 -0.01    -0.006 A 
DOCKED: ATOM      7  C3A HEM A1501      54.633  80.780  13.302 -0.35 -0.00    -0.007 A 
DOCKED: ATOM      8  C4A HEM A1501      54.824  79.423  12.889 -0.28 +0.05    +0.079 A 
DOCKED: ATOM      9  CMA HEM A1501      54.630  81.275  14.716 -0.46 +0.02    +0.032 C 
DOCKED: ATOM     10  C1B HEM A1501      55.257  77.066  13.458 -0.31 +0.03    +0.079 A 
DOCKED: ATOM     11  C2B HEM A1501      55.535  76.023  14.438 -0.38 -0.00    -0.003 A 
DOCKED: ATOM     12  C3B HEM A1501      55.648  74.876  13.718 -0.40 +0.01    +0.015 A 
DOCKED: ATOM     13  C4B HEM A1501      55.415  75.219  12.318 -0.34 +0.03    +0.083 A 
DOCKED: ATOM     14  CMB HEM A1501      55.663  76.247  15.919 -0.53 +0.01    +0.033 C 
DOCKED: ATOM     15  C1C HEM A1501      55.226  74.561   9.918 -0.39 +0.03    +0.079 A 
DOCKED: ATOM     16  C2C HEM A1501      55.161  73.568   8.881 -0.47 -0.00    -0.003 A 
DOCKED: ATOM     17  C3C HEM A1501      54.937  74.242   7.724 -0.47 +0.01    +0.015 A 
DOCKED: ATOM     18  C4C HEM A1501      54.873  75.674   8.073 -0.38 +0.04    +0.083 A 
DOCKED: ATOM     19  CMC HEM A1501      55.324  72.082   9.130 -0.55 +0.01    +0.033 C 
DOCKED: ATOM     20  C1D HEM A1501      54.593  78.165   7.496 -0.33 +0.06    +0.079 A 
DOCKED: ATOM     21  C2D HEM A1501      54.396  79.212   6.540 -0.38 -0.01    -0.007 A 
DOCKED: ATOM     22  C3D HEM A1501      54.316  80.368   7.248 -0.34 -0.01    -0.006 A 
DOCKED: ATOM     23  C4D HEM A1501      54.459  80.023   8.649 -0.27 +0.07    +0.079 A 
DOCKED: ATOM     24  CMD HEM A1501      54.295  79.062   5.074 -0.51 +0.02    +0.032 C 
DOCKED: ATOM     25  NA  HEM A1501      54.730  79.294  11.535 -0.08 -0.17    -0.246 N 
DOCKED: ATOM     26  NB  HEM A1501      55.206  76.546  12.187 -0.08 -0.11    -0.246 N 
DOCKED: ATOM     27  NC  HEM A1501      55.025  75.795   9.394 -0.22 -0.11    -0.246 N 
DOCKED: ATOM     28  ND  HEM A1501      54.622  78.678   8.762 -0.19 -0.19    -0.246 N 
DOCKED: ATOM     29 FE   HEM A1501      54.886  77.572  10.448 -0.07 +0.00    +0.000 Fe
DOCKED: ENDROOT
DOCKED: BRANCH   6  30
DOCKED: ATOM     30  CAA HEM A1501      54.187  82.956  12.165 -0.37 +0.05    +0.039 C 
DOCKED: BRANCH  30  31
DOCKED: ATOM     31  CBA HEM A1501      53.056  83.350  13.096 -0.50 +0.11    +0.102 C 
DOCKED: BRANCH  31  32
DOCKED: ATOM     32  CGA HEM A1501      52.490  84.719  12.837 -0.42 +0.28    +0.186 C 
DOCKED: ATOM     33  O1A HEM A1501      53.003  85.413  11.928 -0.38 -1.57    -0.647 OA
DOCKED: ATOM     34  O2A HEM A1501      51.503  85.089  13.506 -0.43 -0.91    -0.647 OA
DOCKED: ENDBRANCH  31  32
DOCKED: ENDBRANCH  30  31
DOCKED: ENDBRANCH   6  30
DOCKED: BRANCH  22  35
DOCKED: ATOM     35  CAD HEM A1501      54.117  81.703   6.637 -0.41 +0.05    +0.039 C 
DOCKED: BRANCH  35  36
DOCKED: ATOM     36  CBD HEM A1501      52.636  82.057   6.509 -0.56 +0.14    +0.102 C 
DOCKED: BRANCH  36  37
DOCKED: ATOM     37  CGD HEM A1501      52.325  83.474   6.953 -0.40 +0.37    +0.186 C 
DOCKED: ATOM     38  O1D HEM A1501      51.502  83.514   7.893 -0.50 -1.26    -0.647 OA
DOCKED: ATOM     39  O2D HEM A1501      52.907  84.525   6.430 -1.15 -1.66    -0.647 OA
DOCKED: ENDBRANCH  36  37
DOCKED: ENDBRANCH  35  36
DOCKED: ENDBRANCH  22  35
DOCKED: BRANCH  17  40
DOCKED: ATOM     40  CAC HEM A1501      54.789  73.699   6.368 -0.60 +0.00    +0.001 C 
DOCKED: ATOM     41  CBC HEM A1501      53.711  73.799   5.576 -0.67 +0.00    +0.000 C 
DOCKED: ENDBRANCH  17  40
DOCKED: BRANCH  12  42
DOCKED: ATOM     42  CAB HEM A1501      55.937  73.486  14.138 -0.57 +0.00    +0.001 C 
DOCKED: ATOM     43  CBB HEM A1501      56.958  72.990  14.808 -0.64 +0.00    +0.000 C 
DOCKED: ENDBRANCH  12  42
DOCKED: TORSDOF 8
DOCKED: TER
DOCKED: ENDMDL
________________________________________________________________________________


	BEGINNING GENETIC ALGORITHM DOCKING 62 of 100
Run: 62 Seed: 1974377422 1349269509 [ Run 62 of 100 GA/GALS ]
Beginning LAMARCKIAN GENETIC ALGORITHM (LGA), with a maximum of 2500000 energy evaluations.

Final-Value: -23.378


	FINAL GENETIC ALGORITHM DOCKED STATE
	_______________________________________________


Detailed state:  trans 54.960 78.800 10.501 quatxyzw -0.175908 0.970213 -0.164067 -0.028715 center 54.495 78.699 10.493 ntor 8 25.4739 -94.4896 -51.7533 -153.1394 15.2485 1.7404 179.9724 -156.1523
State:	 54.960  78.800  10.501  -0.176  0.971 -0.164 -176.709     25.47  -94.49  -51.75 -153.14   15.25    1.74  179.97 -156.15

DOCKED: MODEL       62
DOCKED: USER    Run = 62
DOCKED: USER    DPF = C:/Users/georg/Desktop/fall2024/4-Computational_Biology/Assignment/executables/HEM.dpf
DOCKED: USER  
DOCKED: USER    Estimated Free Energy of Binding    =  -20.43 kcal/mol  [=(1)+(2)+(3)-(4)]
DOCKED: USER    Estimated Inhibition Constant, Ki   =    1.06 fM (femtomolar)  [Temperature = 298.15 K]
DOCKED: USER    
DOCKED: USER    (1) Final Intermolecular Energy     =  -22.81 kcal/mol
DOCKED: USER        vdW + Hbond + desolv Energy     =  -18.46 kcal/mol
DOCKED: USER        Electrostatic Energy            =   -4.36 kcal/mol
DOCKED: USER    (2) Final Total Internal Energy     =   -0.57 kcal/mol
DOCKED: USER    (3) Torsional Free Energy           =   +2.39 kcal/mol
DOCKED: USER    (4) Unbound System's Energy  [=(2)] =   -0.57 kcal/mol
DOCKED: USER    
DOCKED: USER    
DOCKED: USER    NEWDPF move HEM.pdbqt
DOCKED: USER    NEWDPF about 54.495000 78.699000 10.493000
DOCKED: USER    NEWDPF tran0 54.960415 78.799779 10.501408
DOCKED: USER    NEWDPF quaternion0 -0.175908 0.970213 -0.164067 -0.028715
DOCKED: USER    NEWDPF axisangle0 -0.175981 0.970614 -0.164135 -176.709020
DOCKED: USER    NEWDPF quat0 -0.175981 0.970614 -0.164135 -176.709020
DOCKED: USER    NEWDPF dihe0 25.47 -94.49 -51.75 -153.14 15.25 1.74 179.97 -156.15 
DOCKED: USER  keepresnum = 1 
DOCKED: USER  
DOCKED: REMARK  8 active torsions:
DOCKED: REMARK  status: ('A' for Active; 'I' for Inactive)
DOCKED: REMARK    1  A    between atoms: C2A_3624  and  CAA_3628 
DOCKED: REMARK    2  A    between atoms: CAA_3628  and  CBA_3629 
DOCKED: REMARK    3  A    between atoms: CBA_3629  and  CGA_3630 
DOCKED: REMARK    4  A    between atoms: C3B_3635  and  CAB_3638 
DOCKED: REMARK    5  A    between atoms: C3C_3642  and  CAC_3645 
DOCKED: REMARK    6  A    between atoms: C3D_3649  and  CAD_3652 
DOCKED: REMARK    7  A    between atoms: CAD_3652  and  CBD_3653 
DOCKED: REMARK    8  A    between atoms: CBD_3653  and  CGD_3654 
DOCKED: USER                              x       y       z     vdW  Elec       q    Type
DOCKED: USER                           _______ _______ _______ _____ _____    ______ ____
DOCKED: ROOT
DOCKED: ATOM      1  CHA HEM A1501      54.202  81.012  10.124 -0.27 +0.04    +0.038 A 
DOCKED: ATOM      2  CHB HEM A1501      54.727  77.148   7.308 -0.38 +0.02    +0.038 A 
DOCKED: ATOM      3  CHC HEM A1501      55.509  74.394  11.191 -0.41 +0.01    +0.038 A 
DOCKED: ATOM      4  CHD HEM A1501      55.050  78.276  14.008 -0.39 +0.02    +0.038 A 
DOCKED: ATOM      5  C1A HEM A1501      54.304  80.202   8.998 -0.27 +0.08    +0.079 A 
DOCKED: ATOM      6  C2A HEM A1501      54.178  80.623   7.599 -0.35 -0.01    -0.006 A 
DOCKED: ATOM      7  C3A HEM A1501      54.324  79.540   6.848 -0.36 -0.01    -0.007 A 
DOCKED: ATOM      8  C4A HEM A1501      54.550  78.447   7.744 -0.32 +0.06    +0.079 A 
DOCKED: ATOM      9  CMA HEM A1501      54.288  79.457   5.353 -0.50 +0.03    +0.032 C 
DOCKED: ATOM     10  C1B HEM A1501      54.957  76.045   8.109 -0.36 +0.04    +0.079 A 
DOCKED: ATOM     11  C2B HEM A1501      55.118  74.688   7.601 -0.48 -0.00    -0.003 A 
DOCKED: ATOM     12  C3B HEM A1501      55.322  73.916   8.699 -0.45 +0.01    +0.015 A 
DOCKED: ATOM     13  C4B HEM A1501      55.310  74.800   9.860 -0.38 +0.03    +0.083 A 
DOCKED: ATOM     14  CMB HEM A1501      55.051  74.302   6.149 -0.58 +0.02    +0.033 C 
DOCKED: ATOM     15  C1C HEM A1501      55.496  75.165  12.322 -0.35 +0.03    +0.079 A 
DOCKED: ATOM     16  C2C HEM A1501      55.791  74.700  13.649 -0.43 -0.00    -0.003 A 
DOCKED: ATOM     17  C3C HEM A1501      55.684  75.782  14.463 -0.38 +0.01    +0.015 A 
DOCKED: ATOM     18  C4C HEM A1501      55.308  76.922  13.604 -0.31 +0.03    +0.083 A 
DOCKED: ATOM     19  CMC HEM A1501      56.142  73.263  13.977 -0.55 +0.01    +0.033 C 
DOCKED: ATOM     20  C1D HEM A1501      54.714  79.392  13.203 -0.31 +0.05    +0.079 A 
DOCKED: ATOM     21  C2D HEM A1501      54.477  80.716  13.692 -0.40 -0.00    -0.007 A 
DOCKED: ATOM     22  C3D HEM A1501      54.237  81.490  12.603 -0.34 -0.00    -0.006 A 
DOCKED: ATOM     23  C4D HEM A1501      54.335  80.633  11.437 -0.20 +0.07    +0.079 A 
DOCKED: ATOM     24  CMD HEM A1501      54.495  81.153  15.103 -0.46 +0.01    +0.032 C 
DOCKED: ATOM     25  NA  HEM A1501      54.564  78.858   9.044 -0.18 -0.19    -0.246 N 
DOCKED: ATOM     26  NB  HEM A1501      55.065  76.072   9.479 -0.18 -0.12    -0.246 N 
DOCKED: ATOM     27  NC  HEM A1501      55.239  76.496  12.341 -0.13 -0.10    -0.246 N 
DOCKED: ATOM     28  ND  HEM A1501      54.628  79.367  11.839 -0.09 -0.17    -0.246 N 
DOCKED: ATOM     29 FE   HEM A1501      54.883  77.704  10.697 -0.07 +0.00    +0.000 Fe
DOCKED: ENDROOT
DOCKED: BRANCH   6  30
DOCKED: ATOM     30  CAA HEM A1501      53.940  81.996   7.075 -0.44 +0.05    +0.039 C 
DOCKED: BRANCH  30  31
DOCKED: ATOM     31  CBA HEM A1501      52.471  82.368   7.128 -0.56 +0.16    +0.102 C 
DOCKED: BRANCH  31  32
DOCKED: ATOM     32  CGA HEM A1501      52.123  83.623   6.376 -0.62 +0.36    +0.186 C 
DOCKED: ATOM     33  O1A HEM A1501      51.172  83.584   5.562 -1.02 -1.31    -0.647 OA
DOCKED: ATOM     34  O2A HEM A1501      52.765  84.663   6.630 -1.09 -1.76    -0.647 OA
DOCKED: ENDBRANCH  31  32
DOCKED: ENDBRANCH  30  31
DOCKED: ENDBRANCH   6  30
DOCKED: BRANCH  22  35
DOCKED: ATOM     35  CAD HEM A1501      53.938  82.940  12.665 -0.42 +0.04    +0.039 C 
DOCKED: BRANCH  35  36
DOCKED: ATOM     36  CBD HEM A1501      52.544  83.213  13.228 -0.52 +0.11    +0.102 C 
DOCKED: BRANCH  36  37
DOCKED: ATOM     37  CGD HEM A1501      52.178  84.685  13.218 -0.50 +0.26    +0.186 C 
DOCKED: ATOM     38  O1D HEM A1501      53.150  85.421  12.938 -0.57 -1.32    -0.647 OA
DOCKED: ATOM     39  O2D HEM A1501      50.959  85.115  13.431 -0.63 -0.88    -0.647 OA
DOCKED: ENDBRANCH  36  37
DOCKED: ENDBRANCH  35  36
DOCKED: ENDBRANCH  22  35
DOCKED: BRANCH  17  40
DOCKED: ATOM     40  CAC HEM A1501      55.883  75.852  15.915 -0.55 +0.00    +0.001 C 
DOCKED: ATOM     41  CBC HEM A1501      56.412  76.874  16.605 -0.59 +0.00    +0.000 C 
DOCKED: ENDBRANCH  17  40
DOCKED: BRANCH  12  42
DOCKED: ATOM     42  CAB HEM A1501      55.538  72.457   8.838 -0.53 +0.00    +0.001 C 
DOCKED: ATOM     43  CBB HEM A1501      54.824  71.544   9.466 -0.54 +0.00    +0.000 C 
DOCKED: ENDBRANCH  12  42
DOCKED: TORSDOF 8
DOCKED: TER
DOCKED: ENDMDL
________________________________________________________________________________


	BEGINNING GENETIC ALGORITHM DOCKING 63 of 100
Run: 63 Seed: 1681561244 2084458819 [ Run 63 of 100 GA/GALS ]
Beginning LAMARCKIAN GENETIC ALGORITHM (LGA), with a maximum of 2500000 energy evaluations.

Final-Value: -22.001


	FINAL GENETIC ALGORITHM DOCKED STATE
	_______________________________________________


Detailed state:  trans 54.860 78.920 10.311 quatxyzw 0.194245 -0.956578 0.215341 0.029247 center 54.495 78.699 10.493 ntor 8 -179.7117 -53.7452 -78.2296 -155.0213 8.6207 44.2435 -153.1938 -7.3652
State:	 54.860  78.920  10.311   0.194 -0.957  0.215 176.648   -179.71  -53.75  -78.23 -155.02    8.62   44.24 -153.19   -7.37

DOCKED: MODEL       63
DOCKED: USER    Run = 63
DOCKED: USER    DPF = C:/Users/georg/Desktop/fall2024/4-Computational_Biology/Assignment/executables/HEM.dpf
DOCKED: USER  
DOCKED: USER    Estimated Free Energy of Binding    =  -18.97 kcal/mol  [=(1)+(2)+(3)-(4)]
DOCKED: USER    Estimated Inhibition Constant, Ki   =   12.34 fM (femtomolar)  [Temperature = 298.15 K]
DOCKED: USER    
DOCKED: USER    (1) Final Intermolecular Energy     =  -21.36 kcal/mol
DOCKED: USER        vdW + Hbond + desolv Energy     =  -17.44 kcal/mol
DOCKED: USER        Electrostatic Energy            =   -3.92 kcal/mol
DOCKED: USER    (2) Final Total Internal Energy     =   -0.64 kcal/mol
DOCKED: USER    (3) Torsional Free Energy           =   +2.39 kcal/mol
DOCKED: USER    (4) Unbound System's Energy  [=(2)] =   -0.64 kcal/mol
DOCKED: USER    
DOCKED: USER    
DOCKED: USER    NEWDPF move HEM.pdbqt
DOCKED: USER    NEWDPF about 54.495000 78.699000 10.493000
DOCKED: USER    NEWDPF tran0 54.860115 78.920185 10.311425
DOCKED: USER    NEWDPF quaternion0 0.194245 -0.956578 0.215341 0.029247
DOCKED: USER    NEWDPF axisangle0 0.194328 -0.956988 0.215433 176.648119
DOCKED: USER    NEWDPF quat0 0.194328 -0.956988 0.215433 176.648119
DOCKED: USER    NEWDPF dihe0 -179.71 -53.75 -78.23 -155.02 8.62 44.24 -153.19 -7.37 
DOCKED: USER  keepresnum = 1 
DOCKED: USER  
DOCKED: REMARK  8 active torsions:
DOCKED: REMARK  status: ('A' for Active; 'I' for Inactive)
DOCKED: REMARK    1  A    between atoms: C2A_3624  and  CAA_3628 
DOCKED: REMARK    2  A    between atoms: CAA_3628  and  CBA_3629 
DOCKED: REMARK    3  A    between atoms: CBA_3629  and  CGA_3630 
DOCKED: REMARK    4  A    between atoms: C3B_3635  and  CAB_3638 
DOCKED: REMARK    5  A    between atoms: C3C_3642  and  CAC_3645 
DOCKED: REMARK    6  A    between atoms: C3D_3649  and  CAD_3652 
DOCKED: REMARK    7  A    between atoms: CAD_3652  and  CBD_3653 
DOCKED: REMARK    8  A    between atoms: CBD_3653  and  CGD_3654 
DOCKED: USER                              x       y       z     vdW  Elec       q    Type
DOCKED: USER                           _______ _______ _______ _____ _____    ______ ____
DOCKED: ROOT
DOCKED: ATOM      1  CHA HEM A1501      54.027  81.051   9.695 -0.30 +0.04    +0.038 A 
DOCKED: ATOM      2  CHB HEM A1501      54.738  76.936   7.306 -0.39 +0.02    +0.038 A 
DOCKED: ATOM      3  CHC HEM A1501      55.560  74.634  11.466 -0.40 +0.01    +0.038 A 
DOCKED: ATOM      4  CHD HEM A1501      54.914  78.769  13.854 -0.39 +0.02    +0.038 A 
DOCKED: ATOM      5  C1A HEM A1501      54.176  80.132   8.662 -0.29 +0.08    +0.079 A 
DOCKED: ATOM      6  C2A HEM A1501      54.058  80.399   7.224 -0.36 -0.01    -0.006 A 
DOCKED: ATOM      7  C3A HEM A1501      54.255  79.250   6.593 -0.38 -0.01    -0.007 A 
DOCKED: ATOM      8  C4A HEM A1501      54.506  78.266   7.601 -0.33 +0.06    +0.079 A 
DOCKED: ATOM      9  CMA HEM A1501      54.245  79.010   5.115 -0.50 +0.02    +0.032 C 
DOCKED: ATOM     10  C1B HEM A1501      54.996  75.933   8.222 -0.35 +0.04    +0.079 A 
DOCKED: ATOM     11  C2B HEM A1501      55.214  74.537   7.860 -0.47 -0.00    -0.003 A 
DOCKED: ATOM     12  C3B HEM A1501      55.430  73.892   9.036 -0.45 +0.01    +0.015 A 
DOCKED: ATOM     13  C4B HEM A1501      55.367  74.892  10.098 -0.37 +0.03    +0.083 A 
DOCKED: ATOM     14  CMB HEM A1501      55.185  73.999   6.456 -0.57 +0.01    +0.033 C 
DOCKED: ATOM     15  C1C HEM A1501      55.500  75.518  12.509 -0.33 +0.03    +0.079 A 
DOCKED: ATOM     16  C2C HEM A1501      55.791  75.206  13.882 -0.41 -0.00    -0.003 A 
DOCKED: ATOM     17  C3C HEM A1501      55.632  76.362  14.576 -0.40 +0.01    +0.015 A 
DOCKED: ATOM     18  C4C HEM A1501      55.228  77.391  13.598 -0.32 +0.04    +0.083 A 
DOCKED: ATOM     19  CMC HEM A1501      56.189  73.826  14.363 -0.54 +0.01    +0.033 C 
DOCKED: ATOM     20  C1D HEM A1501      54.549  79.781  12.933 -0.29 +0.05    +0.079 A 
DOCKED: ATOM     21  C2D HEM A1501      54.256  81.139  13.277 -0.38 -0.00    -0.007 A 
DOCKED: ATOM     22  C3D HEM A1501      54.005  81.786  12.110 -0.35 -0.01    -0.006 A 
DOCKED: ATOM     23  C4D HEM A1501      54.153  80.815  11.042 -0.20 +0.07    +0.079 A 
DOCKED: ATOM     24  CMD HEM A1501      54.235  81.721  14.634 -0.45 +0.02    +0.032 C 
DOCKED: ATOM     25  NA  HEM A1501      54.485  78.811   8.851 -0.20 -0.20    -0.246 N 
DOCKED: ATOM     26  NB  HEM A1501      55.081  76.107   9.583 -0.16 -0.12    -0.246 N 
DOCKED: ATOM     27  NC  HEM A1501      55.194  76.833  12.386 -0.10 -0.11    -0.246 N 
DOCKED: ATOM     28  ND  HEM A1501      54.486  79.611  11.578 -0.09 -0.18    -0.246 N 
DOCKED: ATOM     29 FE   HEM A1501      54.820  77.848  10.620 -0.07 +0.00    +0.000 Fe
DOCKED: ENDROOT
DOCKED: BRANCH   6  30
DOCKED: ATOM     30  CAA HEM A1501      53.777  81.699   6.557 -0.47 +0.05    +0.039 C 
DOCKED: BRANCH  30  31
DOCKED: ATOM     31  CBA HEM A1501      52.506  82.337   7.084 -0.56 +0.16    +0.102 C 
DOCKED: BRANCH  31  32
DOCKED: ATOM     32  CGA HEM A1501      52.106  83.601   6.373 -0.62 +0.36    +0.186 C 
DOCKED: ATOM     33  O1A HEM A1501      51.172  83.545   5.540 -1.02 -1.31    -0.647 OA
DOCKED: ATOM     34  O2A HEM A1501      52.690  84.661   6.677 -1.07 -1.76    -0.647 OA
DOCKED: ENDBRANCH  31  32
DOCKED: ENDBRANCH  30  31
DOCKED: ENDBRANCH   6  30
DOCKED: BRANCH  22  35
DOCKED: ATOM     35  CAD HEM A1501      53.652  83.222  12.016 -0.38 +0.05    +0.039 C 
DOCKED: BRANCH  35  36
DOCKED: ATOM     36  CBD HEM A1501      54.876  84.123  12.185 -0.13 +0.16    +0.102 C 
DOCKED: BRANCH  36  37
DOCKED: ATOM     37  CGD HEM A1501      54.634  85.278  13.138 -0.24 +0.29    +0.186 C 
DOCKED: ATOM     38  O1D HEM A1501      53.425  85.419  13.427 -0.56 -1.12    -0.647 OA
DOCKED: ATOM     39  O2D HEM A1501      55.606  86.003  13.634 -0.29 -0.76    -0.647 OA
DOCKED: ENDBRANCH  36  37
DOCKED: ENDBRANCH  35  36
DOCKED: ENDBRANCH  22  35
DOCKED: BRANCH  17  40
DOCKED: ATOM     40  CAC HEM A1501      55.805  76.591  16.015 -0.55 +0.00    +0.001 C 
DOCKED: ATOM     41  CBC HEM A1501      55.128  75.998  17.010 -0.65 +0.00    +0.000 C 
DOCKED: ENDBRANCH  17  40
DOCKED: BRANCH  12  42
DOCKED: ATOM     42  CAB HEM A1501      55.697  72.465   9.330 -0.50 +0.00    +0.001 C 
DOCKED: ATOM     43  CBB HEM A1501      54.877  71.434   9.375 -0.55 +0.00    +0.000 C 
DOCKED: ENDBRANCH  12  42
DOCKED: TORSDOF 8
DOCKED: TER
DOCKED: ENDMDL
________________________________________________________________________________


	BEGINNING GENETIC ALGORITHM DOCKING 64 of 100
Run: 64 Seed: 841697816 739453783 [ Run 64 of 100 GA/GALS ]
Beginning LAMARCKIAN GENETIC ALGORITHM (LGA), with a maximum of 2500000 energy evaluations.

Final-Value: -22.781


	FINAL GENETIC ALGORITHM DOCKED STATE
	_______________________________________________


Detailed state:  trans 54.321 78.653 10.187 quatxyzw 0.028673 0.036118 -0.038118 0.998209 center 54.495 78.699 10.493 ntor 8 -5.5871 -30.6465 13.9683 -24.9366 30.7816 -5.8417 152.5287 29.5396
State:	 54.321  78.653  10.187   0.479  0.604 -0.637  6.860     -5.59  -30.65   13.97  -24.94   30.78   -5.84  152.53   29.54

DOCKED: MODEL       64
DOCKED: USER    Run = 64
DOCKED: USER    DPF = C:/Users/georg/Desktop/fall2024/4-Computational_Biology/Assignment/executables/HEM.dpf
DOCKED: USER  
DOCKED: USER    Estimated Free Energy of Binding    =  -19.79 kcal/mol  [=(1)+(2)+(3)-(4)]
DOCKED: USER    Estimated Inhibition Constant, Ki   =    3.12 fM (femtomolar)  [Temperature = 298.15 K]
DOCKED: USER    
DOCKED: USER    (1) Final Intermolecular Energy     =  -22.18 kcal/mol
DOCKED: USER        vdW + Hbond + desolv Energy     =  -17.87 kcal/mol
DOCKED: USER        Electrostatic Energy            =   -4.31 kcal/mol
DOCKED: USER    (2) Final Total Internal Energy     =   -0.60 kcal/mol
DOCKED: USER    (3) Torsional Free Energy           =   +2.39 kcal/mol
DOCKED: USER    (4) Unbound System's Energy  [=(2)] =   -0.60 kcal/mol
DOCKED: USER    
DOCKED: USER    
DOCKED: USER    NEWDPF move HEM.pdbqt
DOCKED: USER    NEWDPF about 54.495000 78.699000 10.493000
DOCKED: USER    NEWDPF tran0 54.320638 78.653160 10.186627
DOCKED: USER    NEWDPF quaternion0 0.028673 0.036118 -0.038118 0.998209
DOCKED: USER    NEWDPF axisangle0 0.479242 0.603676 -0.637104 6.860201
DOCKED: USER    NEWDPF quat0 0.479242 0.603676 -0.637104 6.860201
DOCKED: USER    NEWDPF dihe0 -5.59 -30.65 13.97 -24.94 30.78 -5.84 152.53 29.54 
DOCKED: USER  keepresnum = 1 
DOCKED: USER  
DOCKED: REMARK  8 active torsions:
DOCKED: REMARK  status: ('A' for Active; 'I' for Inactive)
DOCKED: REMARK    1  A    between atoms: C2A_3624  and  CAA_3628 
DOCKED: REMARK    2  A    between atoms: CAA_3628  and  CBA_3629 
DOCKED: REMARK    3  A    between atoms: CBA_3629  and  CGA_3630 
DOCKED: REMARK    4  A    between atoms: C3B_3635  and  CAB_3638 
DOCKED: REMARK    5  A    between atoms: C3C_3642  and  CAC_3645 
DOCKED: REMARK    6  A    between atoms: C3D_3649  and  CAD_3652 
DOCKED: REMARK    7  A    between atoms: CAD_3652  and  CBD_3653 
DOCKED: REMARK    8  A    between atoms: CBD_3653  and  CGD_3654 
DOCKED: USER                              x       y       z     vdW  Elec       q    Type
DOCKED: USER                           _______ _______ _______ _____ _____    ______ ____
DOCKED: ROOT
DOCKED: ATOM      1  CHA HEM A1501      54.112  80.947   9.632 -0.30 +0.04    +0.038 A 
DOCKED: ATOM      2  CHB HEM A1501      54.873  78.573  13.746 -0.39 +0.02    +0.038 A 
DOCKED: ATOM      3  CHC HEM A1501      55.610  74.490  11.283 -0.40 +0.01    +0.038 A 
DOCKED: ATOM      4  CHD HEM A1501      54.782  76.853   7.166 -0.40 +0.02    +0.038 A 
DOCKED: ATOM      5  C1A HEM A1501      54.228  80.655  10.987 -0.17 +0.07    +0.079 A 
DOCKED: ATOM      6  C2A HEM A1501      54.043  81.586  12.105 -0.35 -0.01    -0.006 A 
DOCKED: ATOM      7  C3A HEM A1501      54.261  80.907  13.222 -0.38 -0.00    -0.007 A 
DOCKED: ATOM      8  C4A HEM A1501      54.569  79.564  12.834 -0.26 +0.05    +0.079 A 
DOCKED: ATOM      9  CMA HEM A1501      54.182  81.418  14.629 -0.44 +0.02    +0.032 C 
DOCKED: ATOM     10  C1B HEM A1501      55.171  77.256  13.448 -0.31 +0.03    +0.079 A 
DOCKED: ATOM     11  C2B HEM A1501      55.506  76.251  14.449 -0.38 -0.00    -0.003 A 
DOCKED: ATOM     12  C3B HEM A1501      55.727  75.108  13.748 -0.40 +0.01    +0.015 A 
DOCKED: ATOM     13  C4B HEM A1501      55.504  75.413  12.338 -0.33 +0.03    +0.083 A 
DOCKED: ATOM     14  CMB HEM A1501      55.578  76.503  15.930 -0.53 +0.01    +0.033 C 
DOCKED: ATOM     15  C1C HEM A1501      55.429  74.713   9.945 -0.38 +0.03    +0.079 A 
DOCKED: ATOM     16  C2C HEM A1501      55.469  73.705   8.921 -0.45 -0.00    -0.003 A 
DOCKED: ATOM     17  C3C HEM A1501      55.222  74.344   7.749 -0.46 +0.01    +0.015 A 
DOCKED: ATOM     18  C4C HEM A1501      55.036  75.771   8.076 -0.36 +0.04    +0.083 A 
DOCKED: ATOM     19  CMC HEM A1501      55.742  72.240   9.195 -0.46 +0.01    +0.033 C 
DOCKED: ATOM     20  C1D HEM A1501      54.576  78.224   7.455 -0.33 +0.06    +0.079 A 
DOCKED: ATOM     21  C2D HEM A1501      54.321  79.240   6.480 -0.38 -0.01    -0.007 A 
DOCKED: ATOM     22  C3D HEM A1501      54.132  80.395   7.169 -0.36 -0.01    -0.006 A 
DOCKED: ATOM     23  C4D HEM A1501      54.266  80.080   8.578 -0.28 +0.08    +0.079 A 
DOCKED: ATOM     24  CMD HEM A1501      54.270  79.065   5.014 -0.51 +0.02    +0.032 C 
DOCKED: ATOM     25  NA  HEM A1501      54.520  79.411  11.480 -0.06 -0.18    -0.246 N 
DOCKED: ATOM     26  NB  HEM A1501      55.194  76.718  12.183 -0.05 -0.11    -0.246 N 
DOCKED: ATOM     27  NC  HEM A1501      55.145  75.920   9.397 -0.22 -0.12    -0.246 N 
DOCKED: ATOM     28  ND  HEM A1501      54.532  78.754   8.715 -0.20 -0.19    -0.246 N 
DOCKED: ATOM     29 FE   HEM A1501      54.839  77.693  10.422 -0.07 +0.00    +0.000 Fe
DOCKED: ENDROOT
DOCKED: BRANCH   6  30
DOCKED: ATOM     30  CAA HEM A1501      53.673  83.027  12.043 -0.42 +0.05    +0.039 C 
DOCKED: BRANCH  30  31
DOCKED: ATOM     31  CBA HEM A1501      54.839  83.921  12.419 -0.28 +0.14    +0.102 C 
DOCKED: BRANCH  31  32
DOCKED: ATOM     32  CGA HEM A1501      54.438  85.254  12.989 -0.16 +0.32    +0.186 C 
DOCKED: ATOM     33  O1A HEM A1501      55.304  86.156  13.057 -0.57 -1.06    -0.647 OA
DOCKED: ATOM     34  O2A HEM A1501      53.248  85.420  13.328 -0.59 -1.17    -0.647 OA
DOCKED: ENDBRANCH  31  32
DOCKED: ENDBRANCH  30  31
DOCKED: ENDBRANCH   6  30
DOCKED: BRANCH  22  35
DOCKED: ATOM     35  CAD HEM A1501      53.844  81.703   6.534 -0.46 +0.05    +0.039 C 
DOCKED: BRANCH  35  36
DOCKED: ATOM     36  CBD HEM A1501      52.443  82.208   6.876 -0.57 +0.15    +0.102 C 
DOCKED: BRANCH  36  37
DOCKED: ATOM     37  CGD HEM A1501      52.156  83.587   6.314 -0.63 +0.35    +0.186 C 
DOCKED: ATOM     38  O1D HEM A1501      51.204  83.588   5.503 -1.03 -1.30    -0.647 OA
DOCKED: ATOM     39  O2D HEM A1501      52.814  84.657   6.688 -1.07 -1.79    -0.647 OA
DOCKED: ENDBRANCH  36  37
DOCKED: ENDBRANCH  35  36
DOCKED: ENDBRANCH  22  35
DOCKED: BRANCH  17  40
DOCKED: ATOM     40  CAC HEM A1501      55.153  73.774   6.398 -0.60 +0.00    +0.001 C 
DOCKED: ATOM     41  CBC HEM A1501      54.066  73.694   5.615 -0.66 +0.00    +0.000 C 
DOCKED: ENDBRANCH  17  40
DOCKED: BRANCH  12  42
DOCKED: ATOM     42  CAB HEM A1501      56.114  73.750  14.196 -0.56 +0.00    +0.001 C 
DOCKED: ATOM     43  CBB HEM A1501      57.133  73.351  14.932 -0.63 +0.00    +0.000 C 
DOCKED: ENDBRANCH  12  42
DOCKED: TORSDOF 8
DOCKED: TER
DOCKED: ENDMDL
________________________________________________________________________________


	BEGINNING GENETIC ALGORITHM DOCKING 65 of 100
Run: 65 Seed: 473661220 412803138 [ Run 65 of 100 GA/GALS ]
Beginning LAMARCKIAN GENETIC ALGORITHM (LGA), with a maximum of 2500000 energy evaluations.

Final-Value: -23.307


	FINAL GENETIC ALGORITHM DOCKED STATE
	_______________________________________________


Detailed state:  trans 54.870 79.202 10.788 quatxyzw 0.189586 -0.968001 0.161855 0.028891 center 54.495 78.699 10.493 ntor 8 177.2632 -69.2778 174.7558 179.7698 12.0637 2.3076 154.1301 -146.1335
State:	 54.870  79.202  10.788   0.190 -0.968  0.162 176.689    177.26  -69.28  174.76  179.77   12.06    2.31  154.13 -146.13

DOCKED: MODEL       65
DOCKED: USER    Run = 65
DOCKED: USER    DPF = C:/Users/georg/Desktop/fall2024/4-Computational_Biology/Assignment/executables/HEM.dpf
DOCKED: USER  
DOCKED: USER    Estimated Free Energy of Binding    =  -20.38 kcal/mol  [=(1)+(2)+(3)-(4)]
DOCKED: USER    Estimated Inhibition Constant, Ki   =    1.15 fM (femtomolar)  [Temperature = 298.15 K]
DOCKED: USER    
DOCKED: USER    (1) Final Intermolecular Energy     =  -22.77 kcal/mol
DOCKED: USER        vdW + Hbond + desolv Energy     =  -18.62 kcal/mol
DOCKED: USER        Electrostatic Energy            =   -4.15 kcal/mol
DOCKED: USER    (2) Final Total Internal Energy     =   -0.54 kcal/mol
DOCKED: USER    (3) Torsional Free Energy           =   +2.39 kcal/mol
DOCKED: USER    (4) Unbound System's Energy  [=(2)] =   -0.54 kcal/mol
DOCKED: USER    
DOCKED: USER    
DOCKED: USER    NEWDPF move HEM.pdbqt
DOCKED: USER    NEWDPF about 54.495000 78.699000 10.493000
DOCKED: USER    NEWDPF tran0 54.870131 79.202305 10.788404
DOCKED: USER    NEWDPF quaternion0 0.189586 -0.968001 0.161855 0.028891
DOCKED: USER    NEWDPF axisangle0 0.189665 -0.968405 0.161922 176.688861
DOCKED: USER    NEWDPF quat0 0.189665 -0.968405 0.161922 176.688861
DOCKED: USER    NEWDPF dihe0 177.26 -69.28 174.76 179.77 12.06 2.31 154.13 -146.13 
DOCKED: USER  keepresnum = 1 
DOCKED: USER  
DOCKED: REMARK  8 active torsions:
DOCKED: REMARK  status: ('A' for Active; 'I' for Inactive)
DOCKED: REMARK    1  A    between atoms: C2A_3624  and  CAA_3628 
DOCKED: REMARK    2  A    between atoms: CAA_3628  and  CBA_3629 
DOCKED: REMARK    3  A    between atoms: CBA_3629  and  CGA_3630 
DOCKED: REMARK    4  A    between atoms: C3B_3635  and  CAB_3638 
DOCKED: REMARK    5  A    between atoms: C3C_3642  and  CAC_3645 
DOCKED: REMARK    6  A    between atoms: C3D_3649  and  CAD_3652 
DOCKED: REMARK    7  A    between atoms: CAD_3652  and  CBD_3653 
DOCKED: REMARK    8  A    between atoms: CBD_3653  and  CGD_3654 
DOCKED: USER                              x       y       z     vdW  Elec       q    Type
DOCKED: USER                           _______ _______ _______ _____ _____    ______ ____
DOCKED: ROOT
DOCKED: ATOM      1  CHA HEM A1501      54.050  81.394  10.421 -0.29 +0.04    +0.038 A 
DOCKED: ATOM      2  CHB HEM A1501      54.666  77.554   7.591 -0.36 +0.03    +0.038 A 
DOCKED: ATOM      3  CHC HEM A1501      55.543  74.811  11.463 -0.40 +0.01    +0.038 A 
DOCKED: ATOM      4  CHD HEM A1501      54.991  78.671  14.293 -0.39 +0.02    +0.038 A 
DOCKED: ATOM      5  C1A HEM A1501      54.168  80.590   9.292 -0.27 +0.08    +0.079 A 
DOCKED: ATOM      6  C2A HEM A1501      54.024  81.011   7.895 -0.36 -0.01    -0.006 A 
DOCKED: ATOM      7  C3A HEM A1501      54.196  79.935   7.140 -0.36 -0.01    -0.007 A 
DOCKED: ATOM      8  C4A HEM A1501      54.456  78.846   8.032 -0.31 +0.06    +0.079 A 
DOCKED: ATOM      9  CMA HEM A1501      54.155  79.856   5.645 -0.48 +0.03    +0.032 C 
DOCKED: ATOM     10  C1B HEM A1501      54.931  76.455   8.388 -0.32 +0.05    +0.079 A 
DOCKED: ATOM     11  C2B HEM A1501      55.126  75.105   7.875 -0.46 -0.00    -0.003 A 
DOCKED: ATOM     12  C3B HEM A1501      55.357  74.335   8.970 -0.44 +0.01    +0.015 A 
DOCKED: ATOM     13  C4B HEM A1501      55.327  75.216  10.134 -0.34 +0.03    +0.083 A 
DOCKED: ATOM     14  CMB HEM A1501      55.064  74.721   6.422 -0.59 +0.02    +0.033 C 
DOCKED: ATOM     15  C1C HEM A1501      55.514  75.578  12.596 -0.33 +0.03    +0.079 A 
DOCKED: ATOM     16  C2C HEM A1501      55.828  75.118  13.920 -0.41 -0.00    -0.003 A 
DOCKED: ATOM     17  C3C HEM A1501      55.695  76.194  14.737 -0.40 +0.01    +0.015 A 
DOCKED: ATOM     18  C4C HEM A1501      55.285  77.326  13.884 -0.34 +0.03    +0.083 A 
DOCKED: ATOM     19  CMC HEM A1501      56.220  73.690  14.242 -0.55 +0.01    +0.033 C 
DOCKED: ATOM     20  C1D HEM A1501      54.620  79.780  13.493 -0.35 +0.05    +0.079 A 
DOCKED: ATOM     21  C2D HEM A1501      54.350  81.096  13.987 -0.41 -0.00    -0.007 A 
DOCKED: ATOM     22  C3D HEM A1501      54.083  81.866  12.901 -0.37 -0.00    -0.006 A 
DOCKED: ATOM     23  C4D HEM A1501      54.199  81.015  11.733 -0.25 +0.07    +0.079 A 
DOCKED: ATOM     24  CMD HEM A1501      54.362  81.529  15.399 -0.45 +0.01    +0.032 C 
DOCKED: ATOM     25  NA  HEM A1501      54.465  79.254   9.333 -0.18 -0.20    -0.246 N 
DOCKED: ATOM     26  NB  HEM A1501      55.045  76.481   9.758 +0.03 -0.12    -0.246 N 
DOCKED: ATOM     27  NC  HEM A1501      55.221  76.902  12.620 -0.15 -0.11    -0.246 N 
DOCKED: ATOM     28  ND  HEM A1501      54.529  79.757  12.129 -0.15 -0.18    -0.246 N 
DOCKED: ATOM     29 FE   HEM A1501      54.824  78.104  10.982 -0.07 +0.00    +0.000 Fe
DOCKED: ENDROOT
DOCKED: BRANCH   6  30
DOCKED: ATOM     30  CAA HEM A1501      53.745  82.378   7.377 -0.44 +0.06    +0.039 C 
DOCKED: BRANCH  30  31
DOCKED: ATOM     31  CBA HEM A1501      52.330  82.499   6.847 -0.58 +0.16    +0.102 C 
DOCKED: BRANCH  31  32
DOCKED: ATOM     32  CGA HEM A1501      52.043  83.793   6.136 -0.64 +0.36    +0.186 C 
DOCKED: ATOM     33  O1A HEM A1501      52.938  84.668   6.110 -1.15 -1.63    -0.647 OA
DOCKED: ATOM     34  O2A HEM A1501      50.941  83.923   5.563 -0.97 -1.40    -0.647 OA
DOCKED: ENDBRANCH  31  32
DOCKED: ENDBRANCH  30  31
DOCKED: ENDBRANCH   6  30
DOCKED: BRANCH  22  35
DOCKED: ATOM     35  CAD HEM A1501      53.745  83.307  12.969 -0.46 +0.04    +0.039 C 
DOCKED: BRANCH  35  36
DOCKED: ATOM     36  CBD HEM A1501      52.460  83.556  13.758 -0.46 +0.10    +0.102 C 
DOCKED: BRANCH  36  37
DOCKED: ATOM     37  CGD HEM A1501      52.035  85.012  13.755 -0.49 +0.26    +0.186 C 
DOCKED: ATOM     38  O1D HEM A1501      53.007  85.797  13.810 -0.42 -1.14    -0.647 OA
DOCKED: ATOM     39  O2D HEM A1501      50.783  85.386  13.652 -0.95 -0.91    -0.647 OA
DOCKED: ENDBRANCH  36  37
DOCKED: ENDBRANCH  35  36
DOCKED: ENDBRANCH  22  35
DOCKED: BRANCH  17  40
DOCKED: ATOM     40  CAC HEM A1501      55.899  76.266  16.189 -0.58 +0.00    +0.001 C 
DOCKED: ATOM     41  CBC HEM A1501      55.198  75.619  17.132 -0.66 +0.00    +0.000 C 
DOCKED: ENDBRANCH  17  40
DOCKED: BRANCH  12  42
DOCKED: ATOM     42  CAB HEM A1501      55.613  72.882   9.104 -0.50 +0.00    +0.001 C 
DOCKED: ATOM     43  CBB HEM A1501      54.781  71.885   9.325 -0.58 +0.00    +0.000 C 
DOCKED: ENDBRANCH  12  42
DOCKED: TORSDOF 8
DOCKED: TER
DOCKED: ENDMDL
________________________________________________________________________________


	BEGINNING GENETIC ALGORITHM DOCKING 66 of 100
Run: 66 Seed: 1569426346 2051187343 [ Run 66 of 100 GA/GALS ]
Beginning LAMARCKIAN GENETIC ALGORITHM (LGA), with a maximum of 2500000 energy evaluations.

Final-Value: -23.751


	FINAL GENETIC ALGORITHM DOCKED STATE
	_______________________________________________


Detailed state:  trans 54.880 79.119 10.899 quatxyzw 0.189451 -0.969416 0.154446 0.022068 center 54.495 78.699 10.493 ntor 8 166.0937 -65.1975 -167.6971 -118.0683 1.2409 14.0005 134.5487 -169.1564
State:	 54.880  79.119  10.899   0.189 -0.970  0.154 177.471    166.09  -65.20 -167.70 -118.07    1.24   14.00  134.55 -169.16

DOCKED: MODEL       66
DOCKED: USER    Run = 66
DOCKED: USER    DPF = C:/Users/georg/Desktop/fall2024/4-Computational_Biology/Assignment/executables/HEM.dpf
DOCKED: USER  
DOCKED: USER    Estimated Free Energy of Binding    =  -20.91 kcal/mol  [=(1)+(2)+(3)-(4)]
DOCKED: USER    Estimated Inhibition Constant, Ki   =  473.98 aM (attomolar)  [Temperature = 298.15 K]
DOCKED: USER    
DOCKED: USER    (1) Final Intermolecular Energy     =  -23.29 kcal/mol
DOCKED: USER        vdW + Hbond + desolv Energy     =  -18.84 kcal/mol
DOCKED: USER        Electrostatic Energy            =   -4.45 kcal/mol
DOCKED: USER    (2) Final Total Internal Energy     =   -0.46 kcal/mol
DOCKED: USER    (3) Torsional Free Energy           =   +2.39 kcal/mol
DOCKED: USER    (4) Unbound System's Energy  [=(2)] =   -0.46 kcal/mol
DOCKED: USER    
DOCKED: USER    
DOCKED: USER    NEWDPF move HEM.pdbqt
DOCKED: USER    NEWDPF about 54.495000 78.699000 10.493000
DOCKED: USER    NEWDPF tran0 54.880038 79.118705 10.898644
DOCKED: USER    NEWDPF quaternion0 0.189451 -0.969416 0.154446 0.022068
DOCKED: USER    NEWDPF axisangle0 0.189498 -0.969652 0.154483 177.471020
DOCKED: USER    NEWDPF quat0 0.189498 -0.969652 0.154483 177.471020
DOCKED: USER    NEWDPF dihe0 166.09 -65.20 -167.70 -118.07 1.24 14.00 134.55 -169.16 
DOCKED: USER  keepresnum = 1 
DOCKED: USER  
DOCKED: REMARK  8 active torsions:
DOCKED: REMARK  status: ('A' for Active; 'I' for Inactive)
DOCKED: REMARK    1  A    between atoms: C2A_3624  and  CAA_3628 
DOCKED: REMARK    2  A    between atoms: CAA_3628  and  CBA_3629 
DOCKED: REMARK    3  A    between atoms: CBA_3629  and  CGA_3630 
DOCKED: REMARK    4  A    between atoms: C3B_3635  and  CAB_3638 
DOCKED: REMARK    5  A    between atoms: C3C_3642  and  CAC_3645 
DOCKED: REMARK    6  A    between atoms: C3D_3649  and  CAD_3652 
DOCKED: REMARK    7  A    between atoms: CAD_3652  and  CBD_3653 
DOCKED: REMARK    8  A    between atoms: CBD_3653  and  CGD_3654 
DOCKED: USER                              x       y       z     vdW  Elec       q    Type
DOCKED: USER                           _______ _______ _______ _____ _____    ______ ____
DOCKED: ROOT
DOCKED: ATOM      1  CHA HEM A1501      54.060  81.317  10.572 -0.29 +0.04    +0.038 A 
DOCKED: ATOM      2  CHB HEM A1501      54.621  77.510   7.685 -0.37 +0.03    +0.038 A 
DOCKED: ATOM      3  CHC HEM A1501      55.552  74.718  11.508 -0.40 +0.01    +0.038 A 
DOCKED: ATOM      4  CHD HEM A1501      55.056  78.544  14.394 -0.39 +0.01    +0.038 A 
DOCKED: ATOM      5  C1A HEM A1501      54.158  80.527   9.431 -0.26 +0.08    +0.079 A 
DOCKED: ATOM      6  C2A HEM A1501      53.993  80.965   8.041 -0.36 -0.01    -0.006 A 
DOCKED: ATOM      7  C3A HEM A1501      54.149  79.898   7.271 -0.36 -0.01    -0.007 A 
DOCKED: ATOM      8  C4A HEM A1501      54.421  78.797   8.145 -0.31 +0.06    +0.079 A 
DOCKED: ATOM      9  CMA HEM A1501      54.084  79.837   5.776 -0.47 +0.03    +0.032 C 
DOCKED: ATOM     10  C1B HEM A1501      54.895  76.401   8.465 -0.33 +0.04    +0.079 A 
DOCKED: ATOM     11  C2B HEM A1501      55.079  75.057   7.932 -0.46 -0.00    -0.003 A 
DOCKED: ATOM     12  C3B HEM A1501      55.325  74.273   9.014 -0.45 +0.01    +0.015 A 
DOCKED: ATOM     13  C4B HEM A1501      55.315  75.140  10.188 -0.34 +0.03    +0.083 A 
DOCKED: ATOM     14  CMB HEM A1501      54.991  74.690   6.476 -0.58 +0.02    +0.033 C 
DOCKED: ATOM     15  C1C HEM A1501      55.543  75.471  12.651 -0.34 +0.03    +0.079 A 
DOCKED: ATOM     16  C2C HEM A1501      55.877  74.994  13.965 -0.42 -0.00    -0.003 A 
DOCKED: ATOM     17  C3C HEM A1501      55.761  76.061  14.797 -0.40 +0.01    +0.015 A 
DOCKED: ATOM     18  C4C HEM A1501      55.339  77.204  13.964 -0.34 +0.03    +0.083 A 
DOCKED: ATOM     19  CMC HEM A1501      56.270  73.561  14.263 -0.56 +0.01    +0.033 C 
DOCKED: ATOM     20  C1D HEM A1501      54.675  79.664  13.613 -0.35 +0.04    +0.079 A 
DOCKED: ATOM     21  C2D HEM A1501      54.416  80.974  14.128 -0.42 -0.00    -0.007 A 
DOCKED: ATOM     22  C3D HEM A1501      54.134  81.758  13.056 -0.37 -0.00    -0.006 A 
DOCKED: ATOM     23  C4D HEM A1501      54.229  80.921  11.876 -0.26 +0.07    +0.079 A 
DOCKED: ATOM     24  CMD HEM A1501      54.452  81.390  15.544 -0.46 +0.01    +0.032 C 
DOCKED: ATOM     25  NA  HEM A1501      54.452  79.189   9.450 -0.17 -0.20    -0.246 N 
DOCKED: ATOM     26  NB  HEM A1501      55.031  76.410   9.832 +0.08 -0.12    -0.246 N 
DOCKED: ATOM     27  NC  HEM A1501      55.254  76.795  12.696 -0.17 -0.11    -0.246 N 
DOCKED: ATOM     28  ND  HEM A1501      54.562  79.658  12.251 -0.15 -0.17    -0.246 N 
DOCKED: ATOM     29 FE   HEM A1501      54.834  78.018  11.079 -0.07 +0.00    +0.000 Fe
DOCKED: ENDROOT
DOCKED: BRANCH   6  30
DOCKED: ATOM     30  CAA HEM A1501      53.709  82.339   7.544 -0.41 +0.06    +0.039 C 
DOCKED: BRANCH  30  31
DOCKED: ATOM     31  CBA HEM A1501      52.503  82.365   6.625 -0.58 +0.15    +0.102 C 
DOCKED: BRANCH  31  32
DOCKED: ATOM     32  CGA HEM A1501      52.124  83.737   6.140 -0.64 +0.36    +0.186 C 
DOCKED: ATOM     33  O1A HEM A1501      52.942  84.672   6.301 -1.21 -1.70    -0.647 OA
DOCKED: ATOM     34  O2A HEM A1501      51.030  83.878   5.555 -0.98 -1.37    -0.647 OA
DOCKED: ENDBRANCH  31  32
DOCKED: ENDBRANCH  30  31
DOCKED: ENDBRANCH   6  30
DOCKED: BRANCH  22  35
DOCKED: ATOM     35  CAD HEM A1501      53.801  83.199  13.147 -0.45 +0.04    +0.039 C 
DOCKED: BRANCH  35  36
DOCKED: ATOM     36  CBD HEM A1501      52.318  83.426  13.436 -0.52 +0.11    +0.102 C 
DOCKED: BRANCH  36  37
DOCKED: ATOM     37  CGD HEM A1501      51.870  84.848  13.156 -0.49 +0.26    +0.186 C 
DOCKED: ATOM     38  O1D HEM A1501      52.589  85.421  12.309 -0.48 -1.39    -0.647 OA
DOCKED: ATOM     39  O2D HEM A1501      50.811  85.381  13.713 -0.96 -0.91    -0.647 OA
DOCKED: ENDBRANCH  36  37
DOCKED: ENDBRANCH  35  36
DOCKED: ENDBRANCH  22  35
DOCKED: BRANCH  17  40
DOCKED: ATOM     40  CAC HEM A1501      55.988  76.114  16.246 -0.58 +0.00    +0.001 C 
DOCKED: ATOM     41  CBC HEM A1501      55.183  75.630  17.204 -0.67 +0.00    +0.000 C 
DOCKED: ENDBRANCH  17  40
DOCKED: BRANCH  12  42
DOCKED: ATOM     42  CAB HEM A1501      55.579  72.818   9.125 -0.52 +0.00    +0.001 C 
DOCKED: ATOM     43  CBB HEM A1501      54.740  71.813   9.277 -0.57 +0.00    +0.000 C 
DOCKED: ENDBRANCH  12  42
DOCKED: TORSDOF 8
DOCKED: TER
DOCKED: ENDMDL
________________________________________________________________________________


	BEGINNING GENETIC ALGORITHM DOCKING 67 of 100
Run: 67 Seed: 499117705 1097731570 [ Run 67 of 100 GA/GALS ]
Beginning LAMARCKIAN GENETIC ALGORITHM (LGA), with a maximum of 2500000 energy evaluations.

Final-Value: -22.167


	FINAL GENETIC ALGORITHM DOCKED STATE
	_______________________________________________


Detailed state:  trans 54.988 78.907 10.501 quatxyzw 0.165513 -0.974750 0.149420 -0.011875 center 54.495 78.699 10.493 ntor 8 126.9673 -89.9782 -11.9092 158.9830 7.0549 -47.4731 150.0509 149.1784
State:	 54.988  78.907  10.501   0.166 -0.975  0.149 -178.639    126.97  -89.98  -11.91  158.98    7.05  -47.47  150.05  149.18

DOCKED: MODEL       67
DOCKED: USER    Run = 67
DOCKED: USER    DPF = C:/Users/georg/Desktop/fall2024/4-Computational_Biology/Assignment/executables/HEM.dpf
DOCKED: USER  
DOCKED: USER    Estimated Free Energy of Binding    =  -19.14 kcal/mol  [=(1)+(2)+(3)-(4)]
DOCKED: USER    Estimated Inhibition Constant, Ki   =    9.29 fM (femtomolar)  [Temperature = 298.15 K]
DOCKED: USER    
DOCKED: USER    (1) Final Intermolecular Energy     =  -21.53 kcal/mol
DOCKED: USER        vdW + Hbond + desolv Energy     =  -17.46 kcal/mol
DOCKED: USER        Electrostatic Energy            =   -4.07 kcal/mol
DOCKED: USER    (2) Final Total Internal Energy     =   -0.64 kcal/mol
DOCKED: USER    (3) Torsional Free Energy           =   +2.39 kcal/mol
DOCKED: USER    (4) Unbound System's Energy  [=(2)] =   -0.64 kcal/mol
DOCKED: USER    
DOCKED: USER    
DOCKED: USER    NEWDPF move HEM.pdbqt
DOCKED: USER    NEWDPF about 54.495000 78.699000 10.493000
DOCKED: USER    NEWDPF tran0 54.988072 78.907329 10.501072
DOCKED: USER    NEWDPF quaternion0 0.165513 -0.974750 0.149420 -0.011875
DOCKED: USER    NEWDPF axisangle0 0.165525 -0.974819 0.149431 -178.639195
DOCKED: USER    NEWDPF quat0 0.165525 -0.974819 0.149431 -178.639195
DOCKED: USER    NEWDPF dihe0 126.97 -89.98 -11.91 158.98 7.05 -47.47 150.05 149.18 
DOCKED: USER  keepresnum = 1 
DOCKED: USER  
DOCKED: REMARK  8 active torsions:
DOCKED: REMARK  status: ('A' for Active; 'I' for Inactive)
DOCKED: REMARK    1  A    between atoms: C2A_3624  and  CAA_3628 
DOCKED: REMARK    2  A    between atoms: CAA_3628  and  CBA_3629 
DOCKED: REMARK    3  A    between atoms: CBA_3629  and  CGA_3630 
DOCKED: REMARK    4  A    between atoms: C3B_3635  and  CAB_3638 
DOCKED: REMARK    5  A    between atoms: C3C_3642  and  CAC_3645 
DOCKED: REMARK    6  A    between atoms: C3D_3649  and  CAD_3652 
DOCKED: REMARK    7  A    between atoms: CAD_3652  and  CBD_3653 
DOCKED: REMARK    8  A    between atoms: CBD_3653  and  CGD_3654 
DOCKED: USER                              x       y       z     vdW  Elec       q    Type
DOCKED: USER                           _______ _______ _______ _____ _____    ______ ____
DOCKED: ROOT
DOCKED: ATOM      1  CHA HEM A1501      54.280  81.150  10.220 -0.27 +0.04    +0.038 A 
DOCKED: ATOM      2  CHB HEM A1501      54.441  77.321   7.313 -0.40 +0.03    +0.038 A 
DOCKED: ATOM      3  CHC HEM A1501      55.437  74.474  11.079 -0.41 +0.01    +0.038 A 
DOCKED: ATOM      4  CHD HEM A1501      55.341  78.319  13.980 -0.36 +0.02    +0.038 A 
DOCKED: ATOM      5  C1A HEM A1501      54.262  80.357   9.077 -0.27 +0.08    +0.079 A 
DOCKED: ATOM      6  C2A HEM A1501      54.039  80.806   7.699 -0.36 -0.01    -0.006 A 
DOCKED: ATOM      7  C3A HEM A1501      54.086  79.733   6.923 -0.37 -0.01    -0.007 A 
DOCKED: ATOM      8  C4A HEM A1501      54.345  78.617   7.781 -0.33 +0.06    +0.079 A 
DOCKED: ATOM      9  CMA HEM A1501      53.927  79.678   5.434 -0.47 +0.03    +0.032 C 
DOCKED: ATOM     10  C1B HEM A1501      54.696  76.197   8.077 -0.37 +0.05    +0.079 A 
DOCKED: ATOM     11  C2B HEM A1501      54.768  74.845   7.536 -0.48 -0.00    -0.003 A 
DOCKED: ATOM     12  C3B HEM A1501      55.033  74.046   8.603 -0.45 +0.01    +0.015 A 
DOCKED: ATOM     13  C4B HEM A1501      55.145  74.910   9.775 -0.37 +0.03    +0.083 A 
DOCKED: ATOM     14  CMB HEM A1501      54.572  74.486   6.089 -0.60 +0.02    +0.033 C 
DOCKED: ATOM     15  C1C HEM A1501      55.541  75.225  12.218 -0.35 +0.03    +0.079 A 
DOCKED: ATOM     16  C2C HEM A1501      55.925  74.727  13.510 -0.43 -0.00    -0.003 A 
DOCKED: ATOM     17  C3C HEM A1501      55.922  75.798  14.345 -0.40 +0.01    +0.015 A 
DOCKED: ATOM     18  C4C HEM A1501      55.519  76.965  13.537 -0.31 +0.03    +0.083 A 
DOCKED: ATOM     19  CMC HEM A1501      56.251  73.273  13.787 -0.54 +0.01    +0.033 C 
DOCKED: ATOM     20  C1D HEM A1501      54.980  79.460  13.222 -0.30 +0.04    +0.079 A 
DOCKED: ATOM     21  C2D HEM A1501      54.830  80.782  13.748 -0.36 -0.00    -0.007 A 
DOCKED: ATOM     22  C3D HEM A1501      54.530  81.583  12.694 -0.31 -0.00    -0.006 A 
DOCKED: ATOM     23  C4D HEM A1501      54.504  80.743  11.512 -0.22 +0.07    +0.079 A 
DOCKED: ATOM     24  CMD HEM A1501      54.976  81.193  15.159 -0.45 +0.01    +0.032 C 
DOCKED: ATOM     25  NA  HEM A1501      54.478  79.005   9.081 -0.19 -0.20    -0.246 N 
DOCKED: ATOM     26  NB  HEM A1501      54.915  76.196   9.434 -0.12 -0.12    -0.246 N 
DOCKED: ATOM     27  NC  HEM A1501      55.333  76.563  12.278 -0.13 -0.11    -0.246 N 
DOCKED: ATOM     28  ND  HEM A1501      54.784  79.462  11.869 -0.13 -0.17    -0.246 N 
DOCKED: ATOM     29 FE   HEM A1501      54.889  77.811  10.686 -0.07 +0.00    +0.000 Fe
DOCKED: ENDROOT
DOCKED: BRANCH   6  30
DOCKED: ATOM     30  CAA HEM A1501      53.807  82.195   7.217 -0.45 +0.06    +0.039 C 
DOCKED: BRANCH  30  31
DOCKED: ATOM     31  CBA HEM A1501      52.392  82.382   6.705 -0.58 +0.16    +0.102 C 
DOCKED: BRANCH  31  32
DOCKED: ATOM     32  CGA HEM A1501      52.114  83.746   6.136 -0.64 +0.36    +0.186 C 
DOCKED: ATOM     33  O1A HEM A1501      51.044  83.923   5.510 -0.98 -1.37    -0.647 OA
DOCKED: ATOM     34  O2A HEM A1501      52.940  84.658   6.351 -1.20 -1.71    -0.647 OA
DOCKED: ENDBRANCH  31  32
DOCKED: ENDBRANCH  30  31
DOCKED: ENDBRANCH   6  30
DOCKED: BRANCH  22  35
DOCKED: ATOM     35  CAD HEM A1501      54.288  83.041  12.802 -0.37 +0.04    +0.039 C 
DOCKED: BRANCH  35  36
DOCKED: ATOM     36  CBD HEM A1501      52.952  83.446  12.181 -0.44 +0.14    +0.102 C 
DOCKED: BRANCH  36  37
DOCKED: ATOM     37  CGD HEM A1501      52.157  84.399  13.055 -0.50 +0.24    +0.186 C 
DOCKED: ATOM     38  O1D HEM A1501      51.921  83.928  14.189 +0.11 -0.69    -0.647 OA
DOCKED: ATOM     39  O2D HEM A1501      51.811  85.600  12.662 -0.31 -1.24    -0.647 OA
DOCKED: ENDBRANCH  36  37
DOCKED: ENDBRANCH  35  36
DOCKED: ENDBRANCH  22  35
DOCKED: BRANCH  17  40
DOCKED: ATOM     40  CAC HEM A1501      56.239  75.835  15.778 -0.54 +0.00    +0.001 C 
DOCKED: ATOM     41  CBC HEM A1501      55.393  76.114  16.781 -0.63 +0.00    +0.000 C 
DOCKED: ENDBRANCH  17  40
DOCKED: BRANCH  12  42
DOCKED: ATOM     42  CAB HEM A1501      55.208  72.579   8.702 -0.56 +0.00    +0.001 C 
DOCKED: ATOM     43  CBB HEM A1501      54.471  71.670   9.309 -0.51 +0.00    +0.000 C 
DOCKED: ENDBRANCH  12  42
DOCKED: TORSDOF 8
DOCKED: TER
DOCKED: ENDMDL
________________________________________________________________________________


	BEGINNING GENETIC ALGORITHM DOCKING 68 of 100
Run: 68 Seed: 1833688467 1016536900 [ Run 68 of 100 GA/GALS ]
Beginning LAMARCKIAN GENETIC ALGORITHM (LGA), with a maximum of 2500000 energy evaluations.

Final-Value: -23.294


	FINAL GENETIC ALGORITHM DOCKED STATE
	_______________________________________________


Detailed state:  trans 54.346 78.942 10.528 quatxyzw -0.021982 -0.018510 0.016624 -0.999449 center 54.495 78.699 10.493 ntor 8 -10.3894 -38.2806 177.4845 168.1222 -27.8432 6.3939 -3.0942 19.1300
State:	 54.346  78.942  10.528  -0.662 -0.558  0.501 -3.805    -10.39  -38.28  177.48  168.12  -27.84    6.39   -3.09   19.13

DOCKED: MODEL       68
DOCKED: USER    Run = 68
DOCKED: USER    DPF = C:/Users/georg/Desktop/fall2024/4-Computational_Biology/Assignment/executables/HEM.dpf
DOCKED: USER  
DOCKED: USER    Estimated Free Energy of Binding    =  -20.27 kcal/mol  [=(1)+(2)+(3)-(4)]
DOCKED: USER    Estimated Inhibition Constant, Ki   =    1.40 fM (femtomolar)  [Temperature = 298.15 K]
DOCKED: USER    
DOCKED: USER    (1) Final Intermolecular Energy     =  -22.65 kcal/mol
DOCKED: USER        vdW + Hbond + desolv Energy     =  -18.51 kcal/mol
DOCKED: USER        Electrostatic Energy            =   -4.14 kcal/mol
DOCKED: USER    (2) Final Total Internal Energy     =   -0.64 kcal/mol
DOCKED: USER    (3) Torsional Free Energy           =   +2.39 kcal/mol
DOCKED: USER    (4) Unbound System's Energy  [=(2)] =   -0.64 kcal/mol
DOCKED: USER    
DOCKED: USER    
DOCKED: USER    NEWDPF move HEM.pdbqt
DOCKED: USER    NEWDPF about 54.495000 78.699000 10.493000
DOCKED: USER    NEWDPF tran0 54.345614 78.941929 10.528305
DOCKED: USER    NEWDPF quaternion0 -0.021982 -0.018510 0.016624 -0.999449
DOCKED: USER    NEWDPF axisangle0 -0.662136 -0.557542 0.500722 -3.805040
DOCKED: USER    NEWDPF quat0 -0.662136 -0.557542 0.500722 -3.805040
DOCKED: USER    NEWDPF dihe0 -10.39 -38.28 177.48 168.12 -27.84 6.39 -3.09 19.13 
DOCKED: USER  keepresnum = 1 
DOCKED: USER  
DOCKED: REMARK  8 active torsions:
DOCKED: REMARK  status: ('A' for Active; 'I' for Inactive)
DOCKED: REMARK    1  A    between atoms: C2A_3624  and  CAA_3628 
DOCKED: REMARK    2  A    between atoms: CAA_3628  and  CBA_3629 
DOCKED: REMARK    3  A    between atoms: CBA_3629  and  CGA_3630 
DOCKED: REMARK    4  A    between atoms: C3B_3635  and  CAB_3638 
DOCKED: REMARK    5  A    between atoms: C3C_3642  and  CAC_3645 
DOCKED: REMARK    6  A    between atoms: C3D_3649  and  CAD_3652 
DOCKED: REMARK    7  A    between atoms: CAD_3652  and  CBD_3653 
DOCKED: REMARK    8  A    between atoms: CBD_3653  and  CGD_3654 
DOCKED: USER                              x       y       z     vdW  Elec       q    Type
DOCKED: USER                           _______ _______ _______ _____ _____    ______ ____
DOCKED: ROOT
DOCKED: ATOM      1  CHA HEM A1501      54.219  81.250  10.011 -0.29 +0.04    +0.038 A 
DOCKED: ATOM      2  CHB HEM A1501      55.015  78.787  14.065 -0.39 +0.02    +0.038 A 
DOCKED: ATOM      3  CHC HEM A1501      55.488  74.712  11.525 -0.40 +0.01    +0.038 A 
DOCKED: ATOM      4  CHD HEM A1501      54.624  77.167   7.471 -0.38 +0.03    +0.038 A 
DOCKED: ATOM      5  C1A HEM A1501      54.368  80.935  11.357 -0.23 +0.07    +0.079 A 
DOCKED: ATOM      6  C2A HEM A1501      54.262  81.856  12.493 -0.34 -0.01    -0.006 A 
DOCKED: ATOM      7  C3A HEM A1501      54.488  81.152  13.593 -0.38 -0.00    -0.007 A 
DOCKED: ATOM      8  C4A HEM A1501      54.724  79.803  13.177 -0.31 +0.05    +0.079 A 
DOCKED: ATOM      9  CMA HEM A1501      54.480  81.646  15.008 -0.47 +0.02    +0.032 C 
DOCKED: ATOM     10  C1B HEM A1501      55.246  77.463  13.740 -0.33 +0.03    +0.079 A 
DOCKED: ATOM     11  C2B HEM A1501      55.570  76.429  14.715 -0.42 -0.00    -0.003 A 
DOCKED: ATOM     12  C3B HEM A1501      55.717  75.288  13.993 -0.39 +0.01    +0.015 A 
DOCKED: ATOM     13  C4B HEM A1501      55.459  75.623  12.596 -0.32 +0.03    +0.083 A 
DOCKED: ATOM     14  CMB HEM A1501      55.704  76.657  16.196 -0.53 +0.01    +0.033 C 
DOCKED: ATOM     15  C1C HEM A1501      55.271  74.961  10.197 -0.37 +0.03    +0.079 A 
DOCKED: ATOM     16  C2C HEM A1501      55.233  73.967   9.160 -0.47 -0.00    -0.003 A 
DOCKED: ATOM     17  C3C HEM A1501      54.974  74.633   8.006 -0.46 +0.01    +0.015 A 
DOCKED: ATOM     18  C4C HEM A1501      54.862  76.063   8.357 -0.36 +0.05    +0.083 A 
DOCKED: ATOM     19  CMC HEM A1501      55.450  72.488   9.406 -0.54 +0.01    +0.033 C 
DOCKED: ATOM     20  C1D HEM A1501      54.488  78.542   7.784 -0.32 +0.06    +0.079 A 
DOCKED: ATOM     21  C2D HEM A1501      54.245  79.582   6.832 -0.37 -0.01    -0.007 A 
DOCKED: ATOM     22  C3D HEM A1501      54.131  80.734   7.542 -0.35 -0.01    -0.006 A 
DOCKED: ATOM     23  C4D HEM A1501      54.299  80.393   8.941 -0.27 +0.08    +0.079 A 
DOCKED: ATOM     24  CMD HEM A1501      54.136  79.430   5.367 -0.49 +0.03    +0.032 C 
DOCKED: ATOM     25  NA  HEM A1501      54.622  79.672  11.823 -0.13 -0.18    -0.246 N 
DOCKED: ATOM     26  NB  HEM A1501      55.201  76.942  12.468 -0.12 -0.11    -0.246 N 
DOCKED: ATOM     27  NC  HEM A1501      55.022  76.188   9.676 -0.09 -0.12    -0.246 N 
DOCKED: ATOM     28  ND  HEM A1501      54.511  79.055   9.051 -0.19 -0.20    -0.246 N 
DOCKED: ATOM     29 FE   HEM A1501      54.829  77.957  10.734 -0.07 +0.00    +0.000 Fe
DOCKED: ENDROOT
DOCKED: BRANCH   6  30
DOCKED: ATOM     30  CAA HEM A1501      53.954  83.312  12.462 -0.42 +0.05    +0.039 C 
DOCKED: BRANCH  30  31
DOCKED: ATOM     31  CBA HEM A1501      52.478  83.578  12.686 -0.49 +0.12    +0.102 C 
DOCKED: BRANCH  31  32
DOCKED: ATOM     32  CGA HEM A1501      52.182  84.871  13.396 -0.49 +0.26    +0.186 C 
DOCKED: ATOM     33  O1A HEM A1501      53.146  85.585  13.756 -0.44 -1.08    -0.647 OA
DOCKED: ATOM     34  O2A HEM A1501      50.989  85.199  13.556 -0.70 -0.90    -0.647 OA
DOCKED: ENDBRANCH  31  32
DOCKED: ENDBRANCH  30  31
DOCKED: ENDBRANCH   6  30
DOCKED: BRANCH  22  35
DOCKED: ATOM     35  CAD HEM A1501      53.878  82.061   6.934 -0.45 +0.05    +0.039 C 
DOCKED: BRANCH  35  36
DOCKED: ATOM     36  CBD HEM A1501      52.428  82.507   7.117 -0.56 +0.16    +0.102 C 
DOCKED: BRANCH  36  37
DOCKED: ATOM     37  CGD HEM A1501      52.090  83.762   6.334 -0.63 +0.37    +0.186 C 
DOCKED: ATOM     38  O1D HEM A1501      52.932  84.672   6.496 -1.16 -1.77    -0.647 OA
DOCKED: ATOM     39  O2D HEM A1501      51.051  83.844   5.539 -0.99 -1.36    -0.647 OA
DOCKED: ENDBRANCH  36  37
DOCKED: ENDBRANCH  35  36
DOCKED: ENDBRANCH  22  35
DOCKED: BRANCH  17  40
DOCKED: ATOM     40  CAC HEM A1501      54.833  74.087   6.651 -0.60 +0.00    +0.001 C 
DOCKED: ATOM     41  CBC HEM A1501      53.700  73.983   5.939 -0.66 +0.00    +0.000 C 
DOCKED: ENDBRANCH  17  40
DOCKED: BRANCH  12  42
DOCKED: ATOM     42  CAB HEM A1501      56.059  73.909  14.409 -0.56 +0.00    +0.001 C 
DOCKED: ATOM     43  CBB HEM A1501      57.145  73.435  14.987 -0.62 +0.00    +0.000 C 
DOCKED: ENDBRANCH  12  42
DOCKED: TORSDOF 8
DOCKED: TER
DOCKED: ENDMDL
________________________________________________________________________________


	BEGINNING GENETIC ALGORITHM DOCKING 69 of 100
Run: 69 Seed: 1000311382 17952666 [ Run 69 of 100 GA/GALS ]
Beginning LAMARCKIAN GENETIC ALGORITHM (LGA), with a maximum of 2500000 energy evaluations.

Final-Value: -22.032


	FINAL GENETIC ALGORITHM DOCKED STATE
	_______________________________________________


Detailed state:  trans 54.308 78.848 10.630 quatxyzw -0.018743 0.015793 -0.024695 0.999395 center 54.495 78.699 10.493 ntor 8 4.2955 -15.9764 -105.9488 176.5592 59.2772 18.7402 -163.4699 -0.5513
State:	 54.308  78.848  10.630  -0.539  0.454 -0.710  3.988      4.30  -15.98 -105.95  176.56   59.28   18.74 -163.47   -0.55

DOCKED: MODEL       69
DOCKED: USER    Run = 69
DOCKED: USER    DPF = C:/Users/georg/Desktop/fall2024/4-Computational_Biology/Assignment/executables/HEM.dpf
DOCKED: USER  
DOCKED: USER    Estimated Free Energy of Binding    =  -18.95 kcal/mol  [=(1)+(2)+(3)-(4)]
DOCKED: USER    Estimated Inhibition Constant, Ki   =   12.90 fM (femtomolar)  [Temperature = 298.15 K]
DOCKED: USER    
DOCKED: USER    (1) Final Intermolecular Energy     =  -21.33 kcal/mol
DOCKED: USER        vdW + Hbond + desolv Energy     =  -17.78 kcal/mol
DOCKED: USER        Electrostatic Energy            =   -3.56 kcal/mol
DOCKED: USER    (2) Final Total Internal Energy     =   -0.70 kcal/mol
DOCKED: USER    (3) Torsional Free Energy           =   +2.39 kcal/mol
DOCKED: USER    (4) Unbound System's Energy  [=(2)] =   -0.70 kcal/mol
DOCKED: USER    
DOCKED: USER    
DOCKED: USER    NEWDPF move HEM.pdbqt
DOCKED: USER    NEWDPF about 54.495000 78.699000 10.493000
DOCKED: USER    NEWDPF tran0 54.308063 78.847647 10.630260
DOCKED: USER    NEWDPF quaternion0 -0.018743 0.015793 -0.024695 0.999395
DOCKED: USER    NEWDPF axisangle0 -0.538686 0.453909 -0.709777 3.987791
DOCKED: USER    NEWDPF quat0 -0.538686 0.453909 -0.709777 3.987791
DOCKED: USER    NEWDPF dihe0 4.30 -15.98 -105.95 176.56 59.28 18.74 -163.47 -0.55 
DOCKED: USER  keepresnum = 1 
DOCKED: USER  
DOCKED: REMARK  8 active torsions:
DOCKED: REMARK  status: ('A' for Active; 'I' for Inactive)
DOCKED: REMARK    1  A    between atoms: C2A_3624  and  CAA_3628 
DOCKED: REMARK    2  A    between atoms: CAA_3628  and  CBA_3629 
DOCKED: REMARK    3  A    between atoms: CBA_3629  and  CGA_3630 
DOCKED: REMARK    4  A    between atoms: C3B_3635  and  CAB_3638 
DOCKED: REMARK    5  A    between atoms: C3C_3642  and  CAC_3645 
DOCKED: REMARK    6  A    between atoms: C3D_3649  and  CAD_3652 
DOCKED: REMARK    7  A    between atoms: CAD_3652  and  CBD_3653 
DOCKED: REMARK    8  A    between atoms: CBD_3653  and  CGD_3654 
DOCKED: USER                              x       y       z     vdW  Elec       q    Type
DOCKED: USER                           _______ _______ _______ _____ _____    ______ ____
DOCKED: ROOT
DOCKED: ATOM      1  CHA HEM A1501      54.137  81.188  10.302 -0.28 +0.04    +0.038 A 
DOCKED: ATOM      2  CHB HEM A1501      55.008  78.419  14.139 -0.40 +0.02    +0.038 A 
DOCKED: ATOM      3  CHC HEM A1501      55.531  74.572  11.274 -0.40 +0.01    +0.038 A 
DOCKED: ATOM      4  CHD HEM A1501      54.593  77.331   7.437 -0.38 +0.03    +0.038 A 
DOCKED: ATOM      5  C1A HEM A1501      54.302  80.767  11.618 -0.22 +0.07    +0.079 A 
DOCKED: ATOM      6  C2A HEM A1501      54.190  81.591  12.825 -0.36 -0.00    -0.006 A 
DOCKED: ATOM      7  C3A HEM A1501      54.437  80.805  13.863 -0.41 -0.00    -0.007 A 
DOCKED: ATOM      8  C4A HEM A1501      54.692  79.499  13.337 -0.33 +0.05    +0.079 A 
DOCKED: ATOM      9  CMA HEM A1501      54.431  81.183  15.313 -0.45 +0.01    +0.032 C 
DOCKED: ATOM     10  C1B HEM A1501      55.259  77.130  13.705 -0.33 +0.03    +0.079 A 
DOCKED: ATOM     11  C2B HEM A1501      55.608  76.027  14.592 -0.40 -0.00    -0.003 A 
DOCKED: ATOM     12  C3B HEM A1501      55.769  74.951  13.779 -0.41 +0.01    +0.015 A 
DOCKED: ATOM     13  C4B HEM A1501      55.495  75.393  12.415 -0.33 +0.03    +0.083 A 
DOCKED: ATOM     14  CMB HEM A1501      55.750  76.136  16.085 -0.55 +0.01    +0.033 C 
DOCKED: ATOM     15  C1C HEM A1501      55.300  74.924   9.972 -0.37 +0.03    +0.079 A 
DOCKED: ATOM     16  C2C HEM A1501      55.270  74.016   8.858 -0.46 -0.00    -0.003 A 
DOCKED: ATOM     17  C3C HEM A1501      54.990  74.769   7.763 -0.46 +0.01    +0.015 A 
DOCKED: ATOM     18  C4C HEM A1501      54.857  76.163   8.230 -0.36 +0.05    +0.083 A 
DOCKED: ATOM     19  CMC HEM A1501      55.515  72.526   8.982 -0.51 +0.01    +0.033 C 
DOCKED: ATOM     20  C1D HEM A1501      54.436  78.673   7.862 -0.32 +0.06    +0.079 A 
DOCKED: ATOM     21  C2D HEM A1501      54.167  79.783   6.998 -0.36 -0.01    -0.007 A 
DOCKED: ATOM     22  C3D HEM A1501      54.039  80.871   7.800 -0.36 -0.01    -0.006 A 
DOCKED: ATOM     23  C4D HEM A1501      54.224  80.421   9.166 -0.27 +0.08    +0.079 A 
DOCKED: ATOM     24  CMD HEM A1501      54.050  79.748   5.527 -0.49 +0.03    +0.032 C 
DOCKED: ATOM     25  NA  HEM A1501      54.582  79.475  11.978 -0.11 -0.17    -0.246 N 
DOCKED: ATOM     26  NB  HEM A1501      55.213  76.713  12.396 -0.12 -0.11    -0.246 N 
DOCKED: ATOM     27  NC  HEM A1501      55.025  76.184   9.553 -0.12 -0.12    -0.246 N 
DOCKED: ATOM     28  ND  HEM A1501      54.459  79.082   9.166 -0.19 -0.20    -0.246 N 
DOCKED: ATOM     29 FE   HEM A1501      54.810  77.858  10.752 -0.07 +0.00    +0.000 Fe
DOCKED: ENDROOT
DOCKED: BRANCH   6  30
DOCKED: ATOM     30  CAA HEM A1501      53.857  83.039  12.914 -0.44 +0.04    +0.039 C 
DOCKED: BRANCH  30  31
DOCKED: ATOM     31  CBA HEM A1501      54.927  83.901  12.274 -0.26 +0.14    +0.102 C 
DOCKED: BRANCH  31  32
DOCKED: ATOM     32  CGA HEM A1501      55.497  84.957  13.181 -0.28 +0.23    +0.186 C 
DOCKED: ATOM     33  O1A HEM A1501      56.300  84.603  14.074 -0.01 -0.43    -0.647 OA
DOCKED: ATOM     34  O2A HEM A1501      55.181  86.148  12.976 -0.55 -1.14    -0.647 OA
DOCKED: ENDBRANCH  31  32
DOCKED: ENDBRANCH  30  31
DOCKED: ENDBRANCH   6  30
DOCKED: BRANCH  22  35
DOCKED: ATOM     35  CAD HEM A1501      53.759  82.239   7.303 -0.45 +0.06    +0.039 C 
DOCKED: BRANCH  35  36
DOCKED: ATOM     36  CBD HEM A1501      52.265  82.471   7.080 -0.57 +0.16    +0.102 C 
DOCKED: BRANCH  36  37
DOCKED: ATOM     37  CGD HEM A1501      51.979  83.620   6.132 -0.62 +0.35    +0.186 C 
DOCKED: ATOM     38  O1D HEM A1501      52.741  84.595   6.313 -1.13 -1.63    -0.647 OA
DOCKED: ATOM     39  O2D HEM A1501      51.062  83.557   5.198 -1.15 -1.29    -0.647 OA
DOCKED: ENDBRANCH  36  37
DOCKED: ENDBRANCH  35  36
DOCKED: ENDBRANCH  22  35
DOCKED: BRANCH  17  40
DOCKED: ATOM     40  CAC HEM A1501      54.849  74.331   6.369 -0.61 +0.00    +0.001 C 
DOCKED: ATOM     41  CBC HEM A1501      53.785  74.516   5.573 -0.67 +0.00    +0.000 C 
DOCKED: ENDBRANCH  17  40
DOCKED: BRANCH  12  42
DOCKED: ATOM     42  CAB HEM A1501      56.139  73.548  14.080 -0.57 +0.00    +0.001 C 
DOCKED: ATOM     43  CBB HEM A1501      57.019  73.060  14.931 -0.65 +0.00    +0.000 C 
DOCKED: ENDBRANCH  12  42
DOCKED: TORSDOF 8
DOCKED: TER
DOCKED: ENDMDL
________________________________________________________________________________


	BEGINNING GENETIC ALGORITHM DOCKING 70 of 100
Run: 70 Seed: 1020444137 797020835 [ Run 70 of 100 GA/GALS ]
Beginning LAMARCKIAN GENETIC ALGORITHM (LGA), with a maximum of 2500000 energy evaluations.

Final-Value: -23.026


	FINAL GENETIC ALGORITHM DOCKED STATE
	_______________________________________________


Detailed state:  trans 54.330 78.691 10.170 quatxyzw -0.032628 -0.016661 0.015425 -0.999210 center 54.495 78.699 10.493 ntor 8 12.4053 -19.7353 -17.7502 129.9328 -23.2040 16.9388 13.2757 46.1489
State:	 54.330  78.691  10.170  -0.821 -0.419  0.388 -4.556     12.41  -19.74  -17.75  129.93  -23.20   16.94   13.28   46.15

DOCKED: MODEL       70
DOCKED: USER    Run = 70
DOCKED: USER    DPF = C:/Users/georg/Desktop/fall2024/4-Computational_Biology/Assignment/executables/HEM.dpf
DOCKED: USER  
DOCKED: USER    Estimated Free Energy of Binding    =  -20.05 kcal/mol  [=(1)+(2)+(3)-(4)]
DOCKED: USER    Estimated Inhibition Constant, Ki   =    2.00 fM (femtomolar)  [Temperature = 298.15 K]
DOCKED: USER    
DOCKED: USER    (1) Final Intermolecular Energy     =  -22.44 kcal/mol
DOCKED: USER        vdW + Hbond + desolv Energy     =  -18.31 kcal/mol
DOCKED: USER        Electrostatic Energy            =   -4.13 kcal/mol
DOCKED: USER    (2) Final Total Internal Energy     =   -0.59 kcal/mol
DOCKED: USER    (3) Torsional Free Energy           =   +2.39 kcal/mol
DOCKED: USER    (4) Unbound System's Energy  [=(2)] =   -0.59 kcal/mol
DOCKED: USER    
DOCKED: USER    
DOCKED: USER    NEWDPF move HEM.pdbqt
DOCKED: USER    NEWDPF about 54.495000 78.699000 10.493000
DOCKED: USER    NEWDPF tran0 54.330156 78.690852 10.170161
DOCKED: USER    NEWDPF quaternion0 -0.032628 -0.016661 0.015425 -0.999210
DOCKED: USER    NEWDPF axisangle0 -0.820815 -0.419134 0.388058 -4.556235
DOCKED: USER    NEWDPF quat0 -0.820815 -0.419134 0.388058 -4.556235
DOCKED: USER    NEWDPF dihe0 12.41 -19.74 -17.75 129.93 -23.20 16.94 13.28 46.15 
DOCKED: USER  keepresnum = 1 
DOCKED: USER  
DOCKED: REMARK  8 active torsions:
DOCKED: REMARK  status: ('A' for Active; 'I' for Inactive)
DOCKED: REMARK    1  A    between atoms: C2A_3624  and  CAA_3628 
DOCKED: REMARK    2  A    between atoms: CAA_3628  and  CBA_3629 
DOCKED: REMARK    3  A    between atoms: CBA_3629  and  CGA_3630 
DOCKED: REMARK    4  A    between atoms: C3B_3635  and  CAB_3638 
DOCKED: REMARK    5  A    between atoms: C3C_3642  and  CAC_3645 
DOCKED: REMARK    6  A    between atoms: C3D_3649  and  CAD_3652 
DOCKED: REMARK    7  A    between atoms: CAD_3652  and  CBD_3653 
DOCKED: REMARK    8  A    between atoms: CBD_3653  and  CGD_3654 
DOCKED: USER                              x       y       z     vdW  Elec       q    Type
DOCKED: USER                           _______ _______ _______ _____ _____    ______ ____
DOCKED: ROOT
DOCKED: ATOM      1  CHA HEM A1501      54.208  80.988   9.604 -0.30 +0.04    +0.038 A 
DOCKED: ATOM      2  CHB HEM A1501      55.011  78.609  13.707 -0.37 +0.02    +0.038 A 
DOCKED: ATOM      3  CHC HEM A1501      55.464  74.480  11.253 -0.41 +0.01    +0.038 A 
DOCKED: ATOM      4  CHD HEM A1501      54.594  76.850   7.150 -0.41 +0.02    +0.038 A 
DOCKED: ATOM      5  C1A HEM A1501      54.361  80.701  10.956 -0.21 +0.07    +0.079 A 
DOCKED: ATOM      6  C2A HEM A1501      54.261  81.647  12.073 -0.32 -0.01    -0.006 A 
DOCKED: ATOM      7  C3A HEM A1501      54.489  80.966  13.187 -0.35 -0.00    -0.007 A 
DOCKED: ATOM      8  C4A HEM A1501      54.719  79.608  12.798 -0.26 +0.05    +0.079 A 
DOCKED: ATOM      9  CMA HEM A1501      54.487  81.489  14.590 -0.46 +0.02    +0.032 C 
DOCKED: ATOM     10  C1B HEM A1501      55.237  77.278  13.409 -0.31 +0.03    +0.079 A 
DOCKED: ATOM     11  C2B HEM A1501      55.561  76.264  14.406 -0.40 -0.00    -0.003 A 
DOCKED: ATOM     12  C3B HEM A1501      55.703  75.108  13.708 -0.40 +0.01    +0.015 A 
DOCKED: ATOM     13  C4B HEM A1501      55.441  75.414  12.304 -0.33 +0.03    +0.083 A 
DOCKED: ATOM     14  CMB HEM A1501      55.700  76.523  15.881 -0.53 +0.01    +0.033 C 
DOCKED: ATOM     15  C1C HEM A1501      55.243  74.701   9.921 -0.38 +0.03    +0.079 A 
DOCKED: ATOM     16  C2C HEM A1501      55.199  73.686   8.905 -0.47 -0.00    -0.003 A 
DOCKED: ATOM     17  C3C HEM A1501      54.938  74.328   7.738 -0.47 +0.01    +0.015 A 
DOCKED: ATOM     18  C4C HEM A1501      54.831  75.764   8.059 -0.38 +0.04    +0.083 A 
DOCKED: ATOM     19  CMC HEM A1501      55.413  72.211   9.182 -0.54 +0.01    +0.033 C 
DOCKED: ATOM     20  C1D HEM A1501      54.462  78.232   7.435 -0.34 +0.06    +0.079 A 
DOCKED: ATOM     21  C2D HEM A1501      54.219  79.252   6.461 -0.39 -0.01    -0.007 A 
DOCKED: ATOM     22  C3D HEM A1501      54.110  80.419   7.147 -0.36 -0.01    -0.006 A 
DOCKED: ATOM     23  C4D HEM A1501      54.282  80.108   8.553 -0.28 +0.08    +0.079 A 
DOCKED: ATOM     24  CMD HEM A1501      54.105  79.069   5.000 -0.50 +0.02    +0.032 C 
DOCKED: ATOM     25  NA  HEM A1501      54.613  79.447  11.448 -0.09 -0.18    -0.246 N 
DOCKED: ATOM     26  NB  HEM A1501      55.187  76.730  12.150 -0.04 -0.11    -0.246 N 
DOCKED: ATOM     27  NC  HEM A1501      54.996  75.917   9.374 -0.20 -0.12    -0.246 N 
DOCKED: ATOM     28  ND  HEM A1501      54.491  78.772   8.690 -0.21 -0.20    -0.246 N 
DOCKED: ATOM     29 FE   HEM A1501      54.812  77.709  10.395 -0.07 +0.00    +0.000 Fe
DOCKED: ENDROOT
DOCKED: BRANCH   6  30
DOCKED: ATOM     30  CAA HEM A1501      53.958  83.102  12.012 -0.37 +0.05    +0.039 C 
DOCKED: BRANCH  30  31
DOCKED: ATOM     31  CBA HEM A1501      52.603  83.418  12.616 -0.50 +0.12    +0.102 C 
DOCKED: BRANCH  31  32
DOCKED: ATOM     32  CGA HEM A1501      52.483  84.809  13.176 -0.44 +0.27    +0.186 C 
DOCKED: ATOM     33  O1A HEM A1501      51.338  85.262  13.402 -0.58 -0.96    -0.647 OA
DOCKED: ATOM     34  O2A HEM A1501      53.531  85.435  13.436 -0.53 -1.11    -0.647 OA
DOCKED: ENDBRANCH  31  32
DOCKED: ENDBRANCH  30  31
DOCKED: ENDBRANCH   6  30
DOCKED: BRANCH  22  35
DOCKED: ATOM     35  CAD HEM A1501      53.860  81.734   6.511 -0.46 +0.05    +0.039 C 
DOCKED: BRANCH  35  36
DOCKED: ATOM     36  CBD HEM A1501      52.719  82.490   7.193 -0.53 +0.16    +0.102 C 
DOCKED: BRANCH  36  37
DOCKED: ATOM     37  CGD HEM A1501      52.136  83.590   6.326 -0.63 +0.35    +0.186 C 
DOCKED: ATOM     38  O1D HEM A1501      52.751  84.673   6.444 -1.11 -1.71    -0.647 OA
DOCKED: ATOM     39  O2D HEM A1501      51.129  83.392   5.511 -0.93 -1.30    -0.647 OA
DOCKED: ENDBRANCH  36  37
DOCKED: ENDBRANCH  35  36
DOCKED: ENDBRANCH  22  35
DOCKED: BRANCH  17  40
DOCKED: ATOM     40  CAC HEM A1501      54.791  73.753   6.395 -0.60 +0.00    +0.001 C 
DOCKED: ATOM     41  CBC HEM A1501      53.804  73.997   5.520 -0.67 +0.00    +0.000 C 
DOCKED: ENDBRANCH  17  40
DOCKED: BRANCH  12  42
DOCKED: ATOM     42  CAB HEM A1501      56.042  73.737  14.152 -0.56 +0.00    +0.001 C 
DOCKED: ATOM     43  CBB HEM A1501      56.955  73.316  15.005 -0.63 +0.00    +0.000 C 
DOCKED: ENDBRANCH  12  42
DOCKED: TORSDOF 8
DOCKED: TER
DOCKED: ENDMDL
________________________________________________________________________________


	BEGINNING GENETIC ALGORITHM DOCKING 71 of 100
Run: 71 Seed: 728922566 937676333 [ Run 71 of 100 GA/GALS ]
Beginning LAMARCKIAN GENETIC ALGORITHM (LGA), with a maximum of 2500000 energy evaluations.

Final-Value: -23.563


	FINAL GENETIC ALGORITHM DOCKED STATE
	_______________________________________________


Detailed state:  trans 54.931 78.883 10.726 quatxyzw -0.180976 0.968654 -0.167671 -0.029044 center 54.495 78.699 10.493 ntor 8 179.5580 -69.2195 156.0725 -103.6695 11.7754 -0.8979 158.7327 -170.4662
State:	 54.931  78.883  10.726  -0.181  0.969 -0.168 -176.671    179.56  -69.22  156.07 -103.67   11.78   -0.90  158.73 -170.47

DOCKED: MODEL       71
DOCKED: USER    Run = 71
DOCKED: USER    DPF = C:/Users/georg/Desktop/fall2024/4-Computational_Biology/Assignment/executables/HEM.dpf
DOCKED: USER  
DOCKED: USER    Estimated Free Energy of Binding    =  -20.62 kcal/mol  [=(1)+(2)+(3)-(4)]
DOCKED: USER    Estimated Inhibition Constant, Ki   =  763.45 aM (attomolar)  [Temperature = 298.15 K]
DOCKED: USER    
DOCKED: USER    (1) Final Intermolecular Energy     =  -23.01 kcal/mol
DOCKED: USER        vdW + Hbond + desolv Energy     =  -18.74 kcal/mol
DOCKED: USER        Electrostatic Energy            =   -4.27 kcal/mol
DOCKED: USER    (2) Final Total Internal Energy     =   -0.55 kcal/mol
DOCKED: USER    (3) Torsional Free Energy           =   +2.39 kcal/mol
DOCKED: USER    (4) Unbound System's Energy  [=(2)] =   -0.55 kcal/mol
DOCKED: USER    
DOCKED: USER    
DOCKED: USER    NEWDPF move HEM.pdbqt
DOCKED: USER    NEWDPF about 54.495000 78.699000 10.493000
DOCKED: USER    NEWDPF tran0 54.930769 78.882807 10.725855
DOCKED: USER    NEWDPF quaternion0 -0.180976 0.968654 -0.167671 -0.029044
DOCKED: USER    NEWDPF axisangle0 -0.181052 0.969063 -0.167741 -176.671364
DOCKED: USER    NEWDPF quat0 -0.181052 0.969063 -0.167741 -176.671364
DOCKED: USER    NEWDPF dihe0 179.56 -69.22 156.07 -103.67 11.78 -0.90 158.73 -170.47 
DOCKED: USER  keepresnum = 1 
DOCKED: USER  
DOCKED: REMARK  8 active torsions:
DOCKED: REMARK  status: ('A' for Active; 'I' for Inactive)
DOCKED: REMARK    1  A    between atoms: C2A_3624  and  CAA_3628 
DOCKED: REMARK    2  A    between atoms: CAA_3628  and  CBA_3629 
DOCKED: REMARK    3  A    between atoms: CBA_3629  and  CGA_3630 
DOCKED: REMARK    4  A    between atoms: C3B_3635  and  CAB_3638 
DOCKED: REMARK    5  A    between atoms: C3C_3642  and  CAC_3645 
DOCKED: REMARK    6  A    between atoms: C3D_3649  and  CAD_3652 
DOCKED: REMARK    7  A    between atoms: CAD_3652  and  CBD_3653 
DOCKED: REMARK    8  A    between atoms: CBD_3653  and  CGD_3654 
DOCKED: USER                              x       y       z     vdW  Elec       q    Type
DOCKED: USER                           _______ _______ _______ _____ _____    ______ ____
DOCKED: ROOT
DOCKED: ATOM      1  CHA HEM A1501      54.150  81.085  10.332 -0.27 +0.04    +0.038 A 
DOCKED: ATOM      2  CHB HEM A1501      54.715  77.204   7.545 -0.37 +0.03    +0.038 A 
DOCKED: ATOM      3  CHC HEM A1501      55.525  74.488  11.450 -0.40 +0.01    +0.038 A 
DOCKED: ATOM      4  CHD HEM A1501      55.024  78.386  14.236 -0.40 +0.02    +0.038 A 
DOCKED: ATOM      5  C1A HEM A1501      54.260  80.267   9.212 -0.26 +0.08    +0.079 A 
DOCKED: ATOM      6  C2A HEM A1501      54.131  80.675   7.809 -0.35 -0.01    -0.006 A 
DOCKED: ATOM      7  C3A HEM A1501      54.288  79.589   7.067 -0.36 -0.01    -0.007 A 
DOCKED: ATOM      8  C4A HEM A1501      54.525  78.504   7.971 -0.32 +0.06    +0.079 A 
DOCKED: ATOM      9  CMA HEM A1501      54.253  79.494   5.572 -0.48 +0.03    +0.032 C 
DOCKED: ATOM     10  C1B HEM A1501      54.956  76.110   8.355 -0.34 +0.04    +0.079 A 
DOCKED: ATOM     11  C2B HEM A1501      55.131  74.751   7.857 -0.47 -0.00    -0.003 A 
DOCKED: ATOM     12  C3B HEM A1501      55.343  73.989   8.961 -0.45 +0.01    +0.015 A 
DOCKED: ATOM     13  C4B HEM A1501      55.322  74.883  10.116 -0.37 +0.03    +0.083 A 
DOCKED: ATOM     14  CMB HEM A1501      55.069  74.353   6.408 -0.58 +0.02    +0.033 C 
DOCKED: ATOM     15  C1C HEM A1501      55.503  75.268  12.574 -0.34 +0.03    +0.079 A 
DOCKED: ATOM     16  C2C HEM A1501      55.802  74.816  13.905 -0.42 -0.00    -0.003 A 
DOCKED: ATOM     17  C3C HEM A1501      55.684  75.903  14.710 -0.39 +0.01    +0.015 A 
DOCKED: ATOM     18  C4C HEM A1501      55.297  77.033  13.843 -0.33 +0.03    +0.083 A 
DOCKED: ATOM     19  CMC HEM A1501      56.168  73.385  14.244 -0.56 +0.01    +0.033 C 
DOCKED: ATOM     20  C1D HEM A1501      54.677  79.493  13.423 -0.34 +0.05    +0.079 A 
DOCKED: ATOM     21  C2D HEM A1501      54.426  80.818  13.901 -0.41 -0.00    -0.007 A 
DOCKED: ATOM     22  C3D HEM A1501      54.179  81.582  12.806 -0.36 -0.00    -0.006 A 
DOCKED: ATOM     23  C4D HEM A1501      54.286  80.716  11.648 -0.22 +0.07    +0.079 A 
DOCKED: ATOM     24  CMD HEM A1501      54.439  81.266  15.309 -0.48 +0.01    +0.032 C 
DOCKED: ATOM     25  NA  HEM A1501      54.534  78.926   9.267 -0.17 -0.19    -0.246 N 
DOCKED: ATOM     26  NB  HEM A1501      55.064  76.149   9.725 -0.10 -0.11    -0.246 N 
DOCKED: ATOM     27  NC  HEM A1501      55.232  76.596  12.583 -0.16 -0.11    -0.246 N 
DOCKED: ATOM     28  ND  HEM A1501      54.592  79.457  12.059 -0.12 -0.17    -0.246 N 
DOCKED: ATOM     29 FE   HEM A1501      54.865  77.788  10.930 -0.07 +0.00    +0.000 Fe
DOCKED: ENDROOT
DOCKED: BRANCH   6  30
DOCKED: ATOM     30  CAA HEM A1501      53.879  82.041   7.275 -0.44 +0.05    +0.039 C 
DOCKED: BRANCH  30  31
DOCKED: ATOM     31  CBA HEM A1501      52.437  82.215   6.840 -0.57 +0.15    +0.102 C 
DOCKED: BRANCH  31  32
DOCKED: ATOM     32  CGA HEM A1501      52.158  83.508   6.122 -0.64 +0.34    +0.186 C 
DOCKED: ATOM     33  O1A HEM A1501      52.934  84.472   6.312 -1.21 -1.60    -0.647 OA
DOCKED: ATOM     34  O2A HEM A1501      51.192  83.551   5.332 -1.09 -1.27    -0.647 OA
DOCKED: ENDBRANCH  31  32
DOCKED: ENDBRANCH  30  31
DOCKED: ENDBRANCH   6  30
DOCKED: BRANCH  22  35
DOCKED: ATOM     35  CAD HEM A1501      53.865  83.029  12.857 -0.44 +0.04    +0.039 C 
DOCKED: BRANCH  35  36
DOCKED: ATOM     36  CBD HEM A1501      52.375  83.283  13.077 -0.50 +0.11    +0.102 C 
DOCKED: BRANCH  36  37
DOCKED: ATOM     37  CGD HEM A1501      52.023  84.759  13.106 -0.48 +0.26    +0.186 C 
DOCKED: ATOM     38  O1D HEM A1501      52.658  85.422  12.257 -0.45 -1.42    -0.647 OA
DOCKED: ATOM     39  O2D HEM A1501      51.113  85.256  13.907 -0.73 -0.89    -0.647 OA
DOCKED: ENDBRANCH  36  37
DOCKED: ENDBRANCH  35  36
DOCKED: ENDBRANCH  22  35
DOCKED: BRANCH  17  40
DOCKED: ATOM     40  CAC HEM A1501      55.881  75.986  16.162 -0.58 +0.00    +0.001 C 
DOCKED: ATOM     41  CBC HEM A1501      55.191  75.328  17.106 -0.65 +0.00    +0.000 C 
DOCKED: ENDBRANCH  17  40
DOCKED: BRANCH  12  42
DOCKED: ATOM     42  CAB HEM A1501      55.574  72.534   9.111 -0.54 +0.00    +0.001 C 
DOCKED: ATOM     43  CBB HEM A1501      54.723  71.553   9.338 -0.54 +0.00    +0.000 C 
DOCKED: ENDBRANCH  12  42
DOCKED: TORSDOF 8
DOCKED: TER
DOCKED: ENDMDL
________________________________________________________________________________


	BEGINNING GENETIC ALGORITHM DOCKING 72 of 100
Run: 72 Seed: 1893098880 1516664719 [ Run 72 of 100 GA/GALS ]
Beginning LAMARCKIAN GENETIC ALGORITHM (LGA), with a maximum of 2500000 energy evaluations.

Final-Value: -23.537


	FINAL GENETIC ALGORITHM DOCKED STATE
	_______________________________________________


Detailed state:  trans 54.884 79.047 10.833 quatxyzw -0.188465 0.972994 -0.133047 0.007895 center 54.495 78.699 10.493 ntor 8 131.7512 -83.0745 180.0000 -112.3128 15.1785 15.4402 133.1578 179.8866
State:	 54.884  79.047  10.833  -0.188  0.973 -0.133 179.095    131.75  -83.07  180.00 -112.31   15.18   15.44  133.16  179.89

DOCKED: MODEL       72
DOCKED: USER    Run = 72
DOCKED: USER    DPF = C:/Users/georg/Desktop/fall2024/4-Computational_Biology/Assignment/executables/HEM.dpf
DOCKED: USER  
DOCKED: USER    Estimated Free Energy of Binding    =  -20.65 kcal/mol  [=(1)+(2)+(3)-(4)]
DOCKED: USER    Estimated Inhibition Constant, Ki   =  729.91 aM (attomolar)  [Temperature = 298.15 K]
DOCKED: USER    
DOCKED: USER    (1) Final Intermolecular Energy     =  -23.04 kcal/mol
DOCKED: USER        vdW + Hbond + desolv Energy     =  -18.59 kcal/mol
DOCKED: USER        Electrostatic Energy            =   -4.45 kcal/mol
DOCKED: USER    (2) Final Total Internal Energy     =   -0.50 kcal/mol
DOCKED: USER    (3) Torsional Free Energy           =   +2.39 kcal/mol
DOCKED: USER    (4) Unbound System's Energy  [=(2)] =   -0.50 kcal/mol
DOCKED: USER    
DOCKED: USER    
DOCKED: USER    NEWDPF move HEM.pdbqt
DOCKED: USER    NEWDPF about 54.495000 78.699000 10.493000
DOCKED: USER    NEWDPF tran0 54.883950 79.047355 10.833282
DOCKED: USER    NEWDPF quaternion0 -0.188465 0.972994 -0.133047 0.007895
DOCKED: USER    NEWDPF axisangle0 -0.188471 0.973024 -0.133051 179.095282
DOCKED: USER    NEWDPF quat0 -0.188471 0.973024 -0.133051 179.095282
DOCKED: USER    NEWDPF dihe0 131.75 -83.07 180.00 -112.31 15.18 15.44 133.16 179.89 
DOCKED: USER  keepresnum = 1 
DOCKED: USER  
DOCKED: REMARK  8 active torsions:
DOCKED: REMARK  status: ('A' for Active; 'I' for Inactive)
DOCKED: REMARK    1  A    between atoms: C2A_3624  and  CAA_3628 
DOCKED: REMARK    2  A    between atoms: CAA_3628  and  CBA_3629 
DOCKED: REMARK    3  A    between atoms: CBA_3629  and  CGA_3630 
DOCKED: REMARK    4  A    between atoms: C3B_3635  and  CAB_3638 
DOCKED: REMARK    5  A    between atoms: C3C_3642  and  CAC_3645 
DOCKED: REMARK    6  A    between atoms: C3D_3649  and  CAD_3652 
DOCKED: REMARK    7  A    between atoms: CAD_3652  and  CBD_3653 
DOCKED: REMARK    8  A    between atoms: CBD_3653  and  CGD_3654 
DOCKED: USER                              x       y       z     vdW  Elec       q    Type
DOCKED: USER                           _______ _______ _______ _____ _____    ______ ____
DOCKED: ROOT
DOCKED: ATOM      1  CHA HEM A1501      54.072  81.263  10.629 -0.28 +0.04    +0.038 A 
DOCKED: ATOM      2  CHB HEM A1501      54.393  77.544   7.596 -0.40 +0.03    +0.038 A 
DOCKED: ATOM      3  CHC HEM A1501      55.539  74.623  11.261 -0.40 +0.01    +0.038 A 
DOCKED: ATOM      4  CHD HEM A1501      55.282  78.361  14.290 -0.39 +0.01    +0.038 A 
DOCKED: ATOM      5  C1A HEM A1501      54.084  80.509   9.461 -0.25 +0.08    +0.079 A 
DOCKED: ATOM      6  C2A HEM A1501      53.834  80.992   8.099 -0.38 -0.01    -0.006 A 
DOCKED: ATOM      7  C3A HEM A1501      53.926  79.949   7.288 -0.38 -0.01    -0.007 A 
DOCKED: ATOM      8  C4A HEM A1501      54.240  78.818   8.107 -0.33 +0.07    +0.079 A 
DOCKED: ATOM      9  CMA HEM A1501      53.761  79.935   5.799 -0.46 +0.03    +0.032 C 
DOCKED: ATOM     10  C1B HEM A1501      54.704  76.408   8.321 -0.35 +0.05    +0.079 A 
DOCKED: ATOM     11  C2B HEM A1501      54.835  75.079   7.736 -0.47 -0.00    -0.003 A 
DOCKED: ATOM     12  C3B HEM A1501      55.143  74.259   8.774 -0.45 +0.01    +0.015 A 
DOCKED: ATOM     13  C4B HEM A1501      55.221  75.088   9.973 -0.35 +0.03    +0.083 A 
DOCKED: ATOM     14  CMB HEM A1501      54.648  74.760   6.278 -0.59 +0.02    +0.033 C 
DOCKED: ATOM     15  C1C HEM A1501      55.615  75.340  12.424 -0.34 +0.03    +0.079 A 
DOCKED: ATOM     16  C2C HEM A1501      56.029  74.817  13.698 -0.43 -0.00    -0.003 A 
DOCKED: ATOM     17  C3C HEM A1501      55.981  75.858  14.568 -0.40 +0.01    +0.015 A 
DOCKED: ATOM     18  C4C HEM A1501      55.520  77.032  13.801 -0.32 +0.03    +0.083 A 
DOCKED: ATOM     19  CMC HEM A1501      56.422  73.372  13.925 -0.51 +0.01    +0.033 C 
DOCKED: ATOM     20  C1D HEM A1501      54.865  79.508  13.571 -0.33 +0.04    +0.079 A 
DOCKED: ATOM     21  C2D HEM A1501      54.657  80.804  14.142 -0.40 -0.00    -0.007 A 
DOCKED: ATOM     22  C3D HEM A1501      54.315  81.625  13.116 -0.35 -0.00    -0.006 A 
DOCKED: ATOM     23  C4D HEM A1501      54.321  80.825  11.906 -0.25 +0.07    +0.079 A 
DOCKED: ATOM     24  CMD HEM A1501      54.792  81.175  15.565 -0.44 +0.01    +0.032 C 
DOCKED: ATOM     25  NA  HEM A1501      54.362  79.168   9.419 -0.16 -0.20    -0.246 N 
DOCKED: ATOM     26  NB  HEM A1501      54.930  76.372   9.676 +0.03 -0.12    -0.246 N 
DOCKED: ATOM     27  NC  HEM A1501      55.346  76.664  12.530 -0.16 -0.11    -0.246 N 
DOCKED: ATOM     28  ND  HEM A1501      54.662  79.547  12.220 -0.14 -0.17    -0.246 N 
DOCKED: ATOM     29 FE   HEM A1501      54.836  77.942  10.982 -0.07 +0.00    +0.000 Fe
DOCKED: ENDROOT
DOCKED: BRANCH   6  30
DOCKED: ATOM     30  CAA HEM A1501      53.536  82.384   7.665 -0.39 +0.06    +0.039 C 
DOCKED: BRANCH  30  31
DOCKED: ATOM     31  CBA HEM A1501      52.291  82.447   6.801 -0.59 +0.16    +0.102 C 
DOCKED: BRANCH  31  32
DOCKED: ATOM     32  CGA HEM A1501      52.081  83.768   6.113 -0.64 +0.36    +0.186 C 
DOCKED: ATOM     33  O1A HEM A1501      52.933  84.670   6.285 -1.21 -1.70    -0.647 OA
DOCKED: ATOM     34  O2A HEM A1501      51.091  83.896   5.363 -0.95 -1.34    -0.647 OA
DOCKED: ENDBRANCH  31  32
DOCKED: ENDBRANCH  30  31
DOCKED: ENDBRANCH   6  30
DOCKED: BRANCH  22  35
DOCKED: ATOM     35  CAD HEM A1501      54.007  83.066  13.273 -0.41 +0.04    +0.039 C 
DOCKED: BRANCH  35  36
DOCKED: ATOM     36  CBD HEM A1501      52.505  83.319  13.400 -0.52 +0.10    +0.102 C 
DOCKED: BRANCH  36  37
DOCKED: ATOM     37  CGD HEM A1501      52.123  84.764  13.140 -0.49 +0.26    +0.186 C 
DOCKED: ATOM     38  O1D HEM A1501      52.884  85.323  12.321 -0.51 -1.42    -0.647 OA
DOCKED: ATOM     39  O2D HEM A1501      51.076  85.330  13.687 -0.78 -0.93    -0.647 OA
DOCKED: ENDBRANCH  36  37
DOCKED: ENDBRANCH  35  36
DOCKED: ENDBRANCH  22  35
DOCKED: BRANCH  17  40
DOCKED: ATOM     40  CAC HEM A1501      56.303  75.863  16.000 -0.55 +0.00    +0.001 C 
DOCKED: ATOM     41  CBC HEM A1501      55.438  75.980  17.019 -0.66 +0.00    +0.000 C 
DOCKED: ENDBRANCH  17  40
DOCKED: BRANCH  12  42
DOCKED: ATOM     42  CAB HEM A1501      55.385  72.799   8.824 -0.54 +0.00    +0.001 C 
DOCKED: ATOM     43  CBB HEM A1501      54.636  71.824   9.297 -0.56 +0.00    +0.000 C 
DOCKED: ENDBRANCH  12  42
DOCKED: TORSDOF 8
DOCKED: TER
DOCKED: ENDMDL
________________________________________________________________________________


	BEGINNING GENETIC ALGORITHM DOCKING 73 of 100
Run: 73 Seed: 776737634 486450563 [ Run 73 of 100 GA/GALS ]
Beginning LAMARCKIAN GENETIC ALGORITHM (LGA), with a maximum of 2500000 energy evaluations.

Final-Value: -23.215


	FINAL GENETIC ALGORITHM DOCKED STATE
	_______________________________________________


Detailed state:  trans 54.945 78.925 10.433 quatxyzw 0.166093 -0.967918 0.188106 0.012792 center 54.495 78.699 10.493 ntor 8 177.5251 180.0000 127.4349 -143.3394 14.7087 -30.9144 -174.3097 179.9984
State:	 54.945  78.925  10.433   0.166 -0.968  0.188 178.534    177.53  180.00  127.43 -143.34   14.71  -30.91 -174.31  180.00

DOCKED: MODEL       73
DOCKED: USER    Run = 73
DOCKED: USER    DPF = C:/Users/georg/Desktop/fall2024/4-Computational_Biology/Assignment/executables/HEM.dpf
DOCKED: USER  
DOCKED: USER    Estimated Free Energy of Binding    =  -20.28 kcal/mol  [=(1)+(2)+(3)-(4)]
DOCKED: USER    Estimated Inhibition Constant, Ki   =    1.36 fM (femtomolar)  [Temperature = 298.15 K]
DOCKED: USER    
DOCKED: USER    (1) Final Intermolecular Energy     =  -22.67 kcal/mol
DOCKED: USER        vdW + Hbond + desolv Energy     =  -18.55 kcal/mol
DOCKED: USER        Electrostatic Energy            =   -4.11 kcal/mol
DOCKED: USER    (2) Final Total Internal Energy     =   -0.55 kcal/mol
DOCKED: USER    (3) Torsional Free Energy           =   +2.39 kcal/mol
DOCKED: USER    (4) Unbound System's Energy  [=(2)] =   -0.55 kcal/mol
DOCKED: USER    
DOCKED: USER    
DOCKED: USER    NEWDPF move HEM.pdbqt
DOCKED: USER    NEWDPF about 54.495000 78.699000 10.493000
DOCKED: USER    NEWDPF tran0 54.945394 78.924787 10.432921
DOCKED: USER    NEWDPF quaternion0 0.166093 -0.967918 0.188106 0.012792
DOCKED: USER    NEWDPF axisangle0 0.166107 -0.967997 0.188122 178.534060
DOCKED: USER    NEWDPF quat0 0.166107 -0.967997 0.188122 178.534060
DOCKED: USER    NEWDPF dihe0 177.53 180.00 127.43 -143.34 14.71 -30.91 -174.31 180.00 
DOCKED: USER  keepresnum = 1 
DOCKED: USER  
DOCKED: REMARK  8 active torsions:
DOCKED: REMARK  status: ('A' for Active; 'I' for Inactive)
DOCKED: REMARK    1  A    between atoms: C2A_3624  and  CAA_3628 
DOCKED: REMARK    2  A    between atoms: CAA_3628  and  CBA_3629 
DOCKED: REMARK    3  A    between atoms: CBA_3629  and  CGA_3630 
DOCKED: REMARK    4  A    between atoms: C3B_3635  and  CAB_3638 
DOCKED: REMARK    5  A    between atoms: C3C_3642  and  CAC_3645 
DOCKED: REMARK    6  A    between atoms: C3D_3649  and  CAD_3652 
DOCKED: REMARK    7  A    between atoms: CAD_3652  and  CBD_3653 
DOCKED: REMARK    8  A    between atoms: CBD_3653  and  CGD_3654 
DOCKED: USER                              x       y       z     vdW  Elec       q    Type
DOCKED: USER                           _______ _______ _______ _____ _____    ______ ____
DOCKED: ROOT
DOCKED: ATOM      1  CHA HEM A1501      54.234  81.133   9.954 -0.28 +0.04    +0.038 A 
DOCKED: ATOM      2  CHB HEM A1501      54.608  77.115   7.336 -0.39 +0.03    +0.038 A 
DOCKED: ATOM      3  CHC HEM A1501      55.400  74.548  11.343 -0.41 +0.01    +0.038 A 
DOCKED: ATOM      4  CHD HEM A1501      55.091  78.582  13.960 -0.38 +0.02    +0.038 A 
DOCKED: ATOM      5  C1A HEM A1501      54.293  80.263   8.870 -0.27 +0.08    +0.079 A 
DOCKED: ATOM      6  C2A HEM A1501      54.151  80.613   7.453 -0.35 -0.01    -0.006 A 
DOCKED: ATOM      7  C3A HEM A1501      54.255  79.490   6.758 -0.37 -0.01    -0.007 A 
DOCKED: ATOM      8  C4A HEM A1501      54.472  78.439   7.706 -0.33 +0.06    +0.079 A 
DOCKED: ATOM      9  CMA HEM A1501      54.187  79.330   5.270 -0.50 +0.02    +0.032 C 
DOCKED: ATOM     10  C1B HEM A1501      54.827  76.050   8.190 -0.37 +0.04    +0.079 A 
DOCKED: ATOM     11  C2B HEM A1501      54.945  74.665   7.750 -0.47 -0.00    -0.003 A 
DOCKED: ATOM     12  C3B HEM A1501      55.152  73.946   8.884 -0.46 +0.01    +0.015 A 
DOCKED: ATOM     13  C4B HEM A1501      55.185  74.890   9.997 -0.37 +0.03    +0.083 A 
DOCKED: ATOM     14  CMB HEM A1501      54.841  74.205   6.322 -0.58 +0.02    +0.033 C 
DOCKED: ATOM     15  C1C HEM A1501      55.428  75.377  12.432 -0.34 +0.03    +0.079 A 
DOCKED: ATOM     16  C2C HEM A1501      55.738  74.975  13.776 -0.41 -0.00    -0.003 A 
DOCKED: ATOM     17  C3C HEM A1501      55.673  76.100  14.534 -0.39 +0.01    +0.015 A 
DOCKED: ATOM     18  C4C HEM A1501      55.309  77.203  13.623 -0.32 +0.04    +0.083 A 
DOCKED: ATOM     19  CMC HEM A1501      56.060  73.548  14.173 -0.55 +0.01    +0.033 C 
DOCKED: ATOM     20  C1D HEM A1501      54.766  79.663  13.104 -0.30 +0.05    +0.079 A 
DOCKED: ATOM     21  C2D HEM A1501      54.572  81.017  13.526 -0.37 -0.00    -0.007 A 
DOCKED: ATOM     22  C3D HEM A1501      54.329  81.739  12.403 -0.32 -0.01    -0.006 A 
DOCKED: ATOM     23  C4D HEM A1501      54.383  80.819  11.282 -0.22 +0.07    +0.079 A 
DOCKED: ATOM     24  CMD HEM A1501      54.628  81.526  14.912 -0.46 +0.02    +0.032 C 
DOCKED: ATOM     25  NA  HEM A1501      54.522  78.917   8.982 -0.19 -0.20    -0.246 N 
DOCKED: ATOM     26  NB  HEM A1501      54.963  76.146   9.554 -0.11 -0.12    -0.246 N 
DOCKED: ATOM     27  NC  HEM A1501      55.204  76.714  12.386 -0.11 -0.11    -0.246 N 
DOCKED: ATOM     28  ND  HEM A1501      54.653  79.570  11.745 -0.12 -0.18    -0.246 N 
DOCKED: ATOM     29 FE   HEM A1501      54.846  77.843  10.688 -0.07 +0.00    +0.000 Fe
DOCKED: ENDROOT
DOCKED: BRANCH   6  30
DOCKED: ATOM     30  CAA HEM A1501      53.935  81.962   6.863 -0.44 +0.05    +0.039 C 
DOCKED: BRANCH  30  31
DOCKED: ATOM     31  CBA HEM A1501      52.506  82.433   7.047 -0.56 +0.16    +0.102 C 
DOCKED: BRANCH  31  32
DOCKED: ATOM     32  CGA HEM A1501      52.153  83.665   6.260 -0.64 +0.36    +0.186 C 
DOCKED: ATOM     33  O1A HEM A1501      52.900  84.666   6.356 -1.19 -1.71    -0.647 OA
DOCKED: ATOM     34  O2A HEM A1501      51.157  83.624   5.509 -1.03 -1.31    -0.647 OA
DOCKED: ENDBRANCH  31  32
DOCKED: ENDBRANCH  30  31
DOCKED: ENDBRANCH   6  30
DOCKED: BRANCH  22  35
DOCKED: ATOM     35  CAD HEM A1501      54.067  83.197  12.394 -0.40 +0.05    +0.039 C 
DOCKED: BRANCH  35  36
DOCKED: ATOM     36  CBD HEM A1501      52.571  83.509  12.395 -0.47 +0.13    +0.102 C 
DOCKED: BRANCH  36  37
DOCKED: ATOM     37  CGD HEM A1501      52.242  84.831  13.062 -0.46 +0.28    +0.186 C 
DOCKED: ATOM     38  O1D HEM A1501      53.258  85.421  13.490 -0.57 -1.11    -0.647 OA
DOCKED: ATOM     39  O2D HEM A1501      51.024  85.309  13.126 -0.63 -0.95    -0.647 OA
DOCKED: ENDBRANCH  36  37
DOCKED: ENDBRANCH  35  36
DOCKED: ENDBRANCH  22  35
DOCKED: BRANCH  17  40
DOCKED: ATOM     40  CAC HEM A1501      55.902  76.241  15.976 -0.56 +0.00    +0.001 C 
DOCKED: ATOM     41  CBC HEM A1501      55.185  75.681  16.962 -0.64 +0.00    +0.000 C 
DOCKED: ENDBRANCH  17  40
DOCKED: BRANCH  12  42
DOCKED: ATOM     42  CAB HEM A1501      55.335  72.491   9.095 -0.56 +0.00    +0.001 C 
DOCKED: ATOM     43  CBB HEM A1501      55.927  71.838  10.075 -0.58 +0.00    +0.000 C 
DOCKED: ENDBRANCH  12  42
DOCKED: TORSDOF 8
DOCKED: TER
DOCKED: ENDMDL
________________________________________________________________________________


	BEGINNING GENETIC ALGORITHM DOCKING 74 of 100
Run: 74 Seed: 1226718670 1285366497 [ Run 74 of 100 GA/GALS ]
Beginning LAMARCKIAN GENETIC ALGORITHM (LGA), with a maximum of 2500000 energy evaluations.

Final-Value: -22.277


	FINAL GENETIC ALGORITHM DOCKED STATE
	_______________________________________________


Detailed state:  trans 54.322 78.612 10.613 quatxyzw -0.050491 -0.048961 0.018527 0.997352 center 54.495 78.699 10.493 ntor 8 -109.8140 -15.8873 79.2232 -180.0000 -33.9549 28.3655 -61.3147 -20.9533
State:	 54.322  78.612  10.613  -0.694 -0.673  0.255  8.342   -109.81  -15.89   79.22 -180.00  -33.95   28.37  -61.31  -20.95

DOCKED: MODEL       74
DOCKED: USER    Run = 74
DOCKED: USER    DPF = C:/Users/georg/Desktop/fall2024/4-Computational_Biology/Assignment/executables/HEM.dpf
DOCKED: USER  
DOCKED: USER    Estimated Free Energy of Binding    =  -19.46 kcal/mol  [=(1)+(2)+(3)-(4)]
DOCKED: USER    Estimated Inhibition Constant, Ki   =    5.48 fM (femtomolar)  [Temperature = 298.15 K]
DOCKED: USER    
DOCKED: USER    (1) Final Intermolecular Energy     =  -21.84 kcal/mol
DOCKED: USER        vdW + Hbond + desolv Energy     =  -17.94 kcal/mol
DOCKED: USER        Electrostatic Energy            =   -3.90 kcal/mol
DOCKED: USER    (2) Final Total Internal Energy     =   -0.44 kcal/mol
DOCKED: USER    (3) Torsional Free Energy           =   +2.39 kcal/mol
DOCKED: USER    (4) Unbound System's Energy  [=(2)] =   -0.44 kcal/mol
DOCKED: USER    
DOCKED: USER    
DOCKED: USER    NEWDPF move HEM.pdbqt
DOCKED: USER    NEWDPF about 54.495000 78.699000 10.493000
DOCKED: USER    NEWDPF tran0 54.322359 78.611663 10.612572
DOCKED: USER    NEWDPF quaternion0 -0.050491 -0.048961 0.018527 0.997352
DOCKED: USER    NEWDPF axisangle0 -0.694218 -0.673182 0.254732 8.341774
DOCKED: USER    NEWDPF quat0 -0.694218 -0.673182 0.254732 8.341774
DOCKED: USER    NEWDPF dihe0 -109.81 -15.89 79.22 -180.00 -33.95 28.37 -61.31 -20.95 
DOCKED: USER  keepresnum = 1 
DOCKED: USER  
DOCKED: REMARK  8 active torsions:
DOCKED: REMARK  status: ('A' for Active; 'I' for Inactive)
DOCKED: REMARK    1  A    between atoms: C2A_3624  and  CAA_3628 
DOCKED: REMARK    2  A    between atoms: CAA_3628  and  CBA_3629 
DOCKED: REMARK    3  A    between atoms: CBA_3629  and  CGA_3630 
DOCKED: REMARK    4  A    between atoms: C3B_3635  and  CAB_3638 
DOCKED: REMARK    5  A    between atoms: C3C_3642  and  CAC_3645 
DOCKED: REMARK    6  A    between atoms: C3D_3649  and  CAD_3652 
DOCKED: REMARK    7  A    between atoms: CAD_3652  and  CBD_3653 
DOCKED: REMARK    8  A    between atoms: CBD_3653  and  CGD_3654 
DOCKED: USER                              x       y       z     vdW  Elec       q    Type
DOCKED: USER                           _______ _______ _______ _____ _____    ______ ____
DOCKED: ROOT
DOCKED: ATOM      1  CHA HEM A1501      54.314  80.975  10.442 -0.26 +0.04    +0.038 A 
DOCKED: ATOM      2  CHB HEM A1501      55.431  77.895  13.965 -0.36 +0.02    +0.038 A 
DOCKED: ATOM      3  CHC HEM A1501      55.243  74.220  10.845 -0.42 +0.01    +0.038 A 
DOCKED: ATOM      4  CHD HEM A1501      54.059  77.295   7.330 -0.43 +0.03    +0.038 A 
DOCKED: ATOM      5  C1A HEM A1501      54.611  80.455  11.698 -0.21 +0.06    +0.079 A 
DOCKED: ATOM      6  C2A HEM A1501      54.728  81.203  12.954 -0.30 -0.00    -0.006 A 
DOCKED: ATOM      7  C3A HEM A1501      55.038  80.332  13.903 -0.36 -0.00    -0.007 A 
DOCKED: ATOM      8  C4A HEM A1501      55.109  79.048  13.275 -0.29 +0.04    +0.079 A 
DOCKED: ATOM      9  CMA HEM A1501      55.253  80.611  15.359 -0.35 +0.01    +0.032 C 
DOCKED: ATOM     10  C1B HEM A1501      55.511  76.623  13.431 -0.31 +0.03    +0.079 A 
DOCKED: ATOM     11  C2B HEM A1501      55.875  75.439  14.199 -0.41 -0.00    -0.003 A 
DOCKED: ATOM     12  C3B HEM A1501      55.836  74.410  13.312 -0.42 +0.01    +0.015 A 
DOCKED: ATOM     13  C4B HEM A1501      55.426  74.963  12.025 -0.35 +0.03    +0.083 A 
DOCKED: ATOM     14  CMB HEM A1501      56.218  75.436  15.663 -0.51 +0.01    +0.033 C 
DOCKED: ATOM     15  C1C HEM A1501      54.876  74.675   9.608 -0.38 +0.03    +0.079 A 
DOCKED: ATOM     16  C2C HEM A1501      54.624  73.849   8.459 -0.47 -0.00    -0.003 A 
DOCKED: ATOM     17  C3C HEM A1501      54.271  74.693   7.455 -0.47 +0.01    +0.015 A 
DOCKED: ATOM     18  C4C HEM A1501      54.321  76.059   8.013 -0.38 +0.05    +0.083 A 
DOCKED: ATOM     19  CMC HEM A1501      54.753  72.340   8.465 -0.55 +0.01    +0.033 C 
DOCKED: ATOM     20  C1D HEM A1501      54.075  78.614   7.847 -0.36 +0.07    +0.079 A 
DOCKED: ATOM     21  C2D HEM A1501      53.794  79.796   7.091 -0.39 -0.01    -0.007 A 
DOCKED: ATOM     22  C3D HEM A1501      53.865  80.835   7.962 -0.38 -0.01    -0.006 A 
DOCKED: ATOM     23  C4D HEM A1501      54.186  80.281   9.264 -0.25 +0.08    +0.079 A 
DOCKED: ATOM     24  CMD HEM A1501      53.484  79.869   5.649 -0.40 +0.03    +0.032 C 
DOCKED: ATOM     25  NA  HEM A1501      54.822  79.124  11.944 -0.12 -0.16    -0.246 N 
DOCKED: ATOM     26  NB  HEM A1501      55.260  76.299  12.119 -0.12 -0.10    -0.246 N 
DOCKED: ATOM     27  NC  HEM A1501      54.660  75.978   9.301 -0.11 -0.12    -0.246 N 
DOCKED: ATOM     28  ND  HEM A1501      54.303  78.931   9.157 -0.17 -0.20    -0.246 N 
DOCKED: ATOM     29 FE   HEM A1501      54.748  77.580  10.610 -0.07 +0.00    +0.000 Fe
DOCKED: ENDROOT
DOCKED: BRANCH   6  30
DOCKED: ATOM     30  CAA HEM A1501      54.536  82.663  13.168 -0.34 +0.03    +0.039 C 
DOCKED: BRANCH  30  31
DOCKED: ATOM     31  CBA HEM A1501      53.412  83.213  12.310 -0.44 +0.13    +0.102 C 
DOCKED: BRANCH  31  32
DOCKED: ATOM     32  CGA HEM A1501      52.571  84.260  12.987 -0.48 +0.25    +0.186 C 
DOCKED: ATOM     33  O1A HEM A1501      51.471  83.914  13.477 -0.13 -0.74    -0.647 OA
DOCKED: ATOM     34  O2A HEM A1501      53.025  85.420  13.074 -0.62 -1.27    -0.647 OA
DOCKED: ENDBRANCH  31  32
DOCKED: ENDBRANCH  30  31
DOCKED: ENDBRANCH   6  30
DOCKED: BRANCH  22  35
DOCKED: ATOM     35  CAD HEM A1501      53.643  82.251   7.585 -0.42 +0.06    +0.039 C 
DOCKED: BRANCH  35  36
DOCKED: ATOM     36  CBD HEM A1501      52.216  82.494   7.094 -0.58 +0.17    +0.102 C 
DOCKED: BRANCH  36  37
DOCKED: ATOM     37  CGD HEM A1501      52.124  83.607   6.068 -0.64 +0.34    +0.186 C 
DOCKED: ATOM     38  O1D HEM A1501      52.913  84.548   6.306 -1.20 -1.63    -0.647 OA
DOCKED: ATOM     39  O2D HEM A1501      51.334  83.546   5.024 -1.06 -1.19    -0.647 OA
DOCKED: ENDBRANCH  36  37
DOCKED: ENDBRANCH  35  36
DOCKED: ENDBRANCH  22  35
DOCKED: BRANCH  17  40
DOCKED: ATOM     40  CAC HEM A1501      53.913  74.362   6.071 -0.65 +0.00    +0.001 C 
DOCKED: ATOM     41  CBC HEM A1501      53.695  73.137   5.569 -0.69 +0.00    +0.000 C 
DOCKED: ENDBRANCH  17  40
DOCKED: BRANCH  12  42
DOCKED: ATOM     42  CAB HEM A1501      56.118  72.966  13.482 -0.52 +0.00    +0.001 C 
DOCKED: ATOM     43  CBB HEM A1501      57.054  72.355  14.180 -0.56 +0.00    +0.000 C 
DOCKED: ENDBRANCH  12  42
DOCKED: TORSDOF 8
DOCKED: TER
DOCKED: ENDMDL
________________________________________________________________________________


	BEGINNING GENETIC ALGORITHM DOCKING 75 of 100
Run: 75 Seed: 318994498 778536940 [ Run 75 of 100 GA/GALS ]
Beginning LAMARCKIAN GENETIC ALGORITHM (LGA), with a maximum of 2500000 energy evaluations.

Final-Value: -23.387


	FINAL GENETIC ALGORITHM DOCKED STATE
	_______________________________________________


Detailed state:  trans 54.301 78.970 10.766 quatxyzw -0.018848 0.016102 -0.020987 0.999472 center 54.495 78.699 10.493 ntor 8 -6.0931 -15.3311 179.5311 177.6880 -6.9809 21.9999 -4.3370 -0.5744
State:	 54.301  78.970  10.766  -0.580  0.496 -0.646  3.723     -6.09  -15.33  179.53  177.69   -6.98   22.00   -4.34   -0.57

DOCKED: MODEL       75
DOCKED: USER    Run = 75
DOCKED: USER    DPF = C:/Users/georg/Desktop/fall2024/4-Computational_Biology/Assignment/executables/HEM.dpf
DOCKED: USER  
DOCKED: USER    Estimated Free Energy of Binding    =  -20.38 kcal/mol  [=(1)+(2)+(3)-(4)]
DOCKED: USER    Estimated Inhibition Constant, Ki   =    1.14 fM (femtomolar)  [Temperature = 298.15 K]
DOCKED: USER    
DOCKED: USER    (1) Final Intermolecular Energy     =  -22.77 kcal/mol
DOCKED: USER        vdW + Hbond + desolv Energy     =  -18.71 kcal/mol
DOCKED: USER        Electrostatic Energy            =   -4.06 kcal/mol
DOCKED: USER    (2) Final Total Internal Energy     =   -0.62 kcal/mol
DOCKED: USER    (3) Torsional Free Energy           =   +2.39 kcal/mol
DOCKED: USER    (4) Unbound System's Energy  [=(2)] =   -0.62 kcal/mol
DOCKED: USER    
DOCKED: USER    
DOCKED: USER    NEWDPF move HEM.pdbqt
DOCKED: USER    NEWDPF about 54.495000 78.699000 10.493000
DOCKED: USER    NEWDPF tran0 54.300501 78.970382 10.766364
DOCKED: USER    NEWDPF quaternion0 -0.018848 0.016102 -0.020987 0.999472
DOCKED: USER    NEWDPF axisangle0 -0.580278 0.495745 -0.646154 3.722624
DOCKED: USER    NEWDPF quat0 -0.580278 0.495745 -0.646154 3.722624
DOCKED: USER    NEWDPF dihe0 -6.09 -15.33 179.53 177.69 -6.98 22.00 -4.34 -0.57 
DOCKED: USER  keepresnum = 1 
DOCKED: USER  
DOCKED: REMARK  8 active torsions:
DOCKED: REMARK  status: ('A' for Active; 'I' for Inactive)
DOCKED: REMARK    1  A    between atoms: C2A_3624  and  CAA_3628 
DOCKED: REMARK    2  A    between atoms: CAA_3628  and  CBA_3629 
DOCKED: REMARK    3  A    between atoms: CBA_3629  and  CGA_3630 
DOCKED: REMARK    4  A    between atoms: C3B_3635  and  CAB_3638 
DOCKED: REMARK    5  A    between atoms: C3C_3642  and  CAC_3645 
DOCKED: REMARK    6  A    between atoms: C3D_3649  and  CAD_3652 
DOCKED: REMARK    7  A    between atoms: CAD_3652  and  CBD_3653 
DOCKED: REMARK    8  A    between atoms: CBD_3653  and  CGD_3654 
DOCKED: USER                              x       y       z     vdW  Elec       q    Type
DOCKED: USER                           _______ _______ _______ _____ _____    ______ ____
DOCKED: ROOT
DOCKED: ATOM      1  CHA HEM A1501      54.147  81.312  10.439 -0.29 +0.04    +0.038 A 
DOCKED: ATOM      2  CHB HEM A1501      54.996  78.535  14.275 -0.40 +0.02    +0.038 A 
DOCKED: ATOM      3  CHC HEM A1501      55.491  74.685  11.409 -0.40 +0.01    +0.038 A 
DOCKED: ATOM      4  CHD HEM A1501      54.576  77.453   7.573 -0.38 +0.03    +0.038 A 
DOCKED: ATOM      5  C1A HEM A1501      54.309  80.889  11.754 -0.24 +0.07    +0.079 A 
DOCKED: ATOM      6  C2A HEM A1501      54.202  81.714  12.962 -0.36 -0.00    -0.006 A 
DOCKED: ATOM      7  C3A HEM A1501      54.442  80.926  14.000 -0.42 -0.00    -0.007 A 
DOCKED: ATOM      8  C4A HEM A1501      54.688  79.618  13.474 -0.34 +0.05    +0.079 A 
DOCKED: ATOM      9  CMA HEM A1501      54.439  81.303  15.450 -0.47 +0.01    +0.032 C 
DOCKED: ATOM     10  C1B HEM A1501      55.237  77.245  13.841 -0.34 +0.03    +0.079 A 
DOCKED: ATOM     11  C2B HEM A1501      55.578  76.139  14.728 -0.41 -0.00    -0.003 A 
DOCKED: ATOM     12  C3B HEM A1501      55.731  75.062  13.914 -0.40 +0.01    +0.015 A 
DOCKED: ATOM     13  C4B HEM A1501      55.461  75.506  12.550 -0.33 +0.03    +0.083 A 
DOCKED: ATOM     14  CMB HEM A1501      55.719  76.247  16.221 -0.56 +0.01    +0.033 C 
DOCKED: ATOM     15  C1C HEM A1501      55.263  75.039  10.107 -0.36 +0.03    +0.079 A 
DOCKED: ATOM     16  C2C HEM A1501      55.227  74.133   8.993 -0.46 -0.00    -0.003 A 
DOCKED: ATOM     17  C3C HEM A1501      54.954  74.888   7.898 -0.46 +0.01    +0.015 A 
DOCKED: ATOM     18  C4C HEM A1501      54.831  76.283   8.365 -0.35 +0.05    +0.083 A 
DOCKED: ATOM     19  CMC HEM A1501      55.461  72.641   9.116 -0.52 +0.01    +0.033 C 
DOCKED: ATOM     20  C1D HEM A1501      54.428  78.796   7.998 -0.32 +0.06    +0.079 A 
DOCKED: ATOM     21  C2D HEM A1501      54.168  79.908   7.135 -0.36 -0.01    -0.007 A 
DOCKED: ATOM     22  C3D HEM A1501      54.048  80.997   7.937 -0.36 -0.01    -0.006 A 
DOCKED: ATOM     23  C4D HEM A1501      54.229  80.545   9.303 -0.26 +0.08    +0.079 A 
DOCKED: ATOM     24  CMD HEM A1501      54.051  79.874   5.663 -0.48 +0.03    +0.032 C 
DOCKED: ATOM     25  NA  HEM A1501      54.579  79.595  12.115 -0.13 -0.17    -0.246 N 
DOCKED: ATOM     26  NB  HEM A1501      55.189  76.828  12.532 -0.13 -0.11    -0.246 N 
DOCKED: ATOM     27  NC  HEM A1501      54.998  76.302   9.689 -0.03 -0.12    -0.246 N 
DOCKED: ATOM     28  ND  HEM A1501      54.454  79.204   9.302 -0.18 -0.20    -0.246 N 
DOCKED: ATOM     29 FE   HEM A1501      54.795  77.977  10.888 -0.07 +0.00    +0.000 Fe
DOCKED: ENDROOT
DOCKED: BRANCH   6  30
DOCKED: ATOM     30  CAA HEM A1501      53.879  83.165  13.052 -0.44 +0.04    +0.039 C 
DOCKED: BRANCH  30  31
DOCKED: ATOM     31  CBA HEM A1501      52.397  83.397  13.275 -0.52 +0.11    +0.102 C 
DOCKED: BRANCH  31  32
DOCKED: ATOM     32  CGA HEM A1501      52.039  84.813  13.633 -0.50 +0.25    +0.186 C 
DOCKED: ATOM     33  O1A HEM A1501      52.960  85.660  13.701 -0.40 -1.14    -0.647 OA
DOCKED: ATOM     34  O2A HEM A1501      50.835  85.096  13.801 -0.75 -0.85    -0.647 OA
DOCKED: ENDBRANCH  31  32
DOCKED: ENDBRANCH  30  31
DOCKED: ENDBRANCH   6  30
DOCKED: BRANCH  22  35
DOCKED: ATOM     35  CAD HEM A1501      53.778  82.367   7.440 -0.42 +0.06    +0.039 C 
DOCKED: BRANCH  35  36
DOCKED: ATOM     36  CBD HEM A1501      52.286  82.610   7.216 -0.56 +0.17    +0.102 C 
DOCKED: BRANCH  36  37
DOCKED: ATOM     37  CGD HEM A1501      52.010  83.709   6.208 -0.63 +0.36    +0.186 C 
DOCKED: ATOM     38  O1D HEM A1501      52.802  84.670   6.315 -1.16 -1.68    -0.647 OA
DOCKED: ATOM     39  O2D HEM A1501      51.070  83.619   5.299 -1.08 -1.31    -0.647 OA
DOCKED: ENDBRANCH  36  37
DOCKED: ENDBRANCH  35  36
DOCKED: ENDBRANCH  22  35
DOCKED: BRANCH  17  40
DOCKED: ATOM     40  CAC HEM A1501      54.810  74.452   6.504 -0.61 +0.00    +0.001 C 
DOCKED: ATOM     41  CBC HEM A1501      53.688  74.470   5.768 -0.67 +0.00    +0.000 C 
DOCKED: ENDBRANCH  17  40
DOCKED: BRANCH  12  42
DOCKED: ATOM     42  CAB HEM A1501      56.090  73.656  14.215 -0.57 +0.00    +0.001 C 
DOCKED: ATOM     43  CBB HEM A1501      56.958  73.161  15.074 -0.63 +0.00    +0.000 C 
DOCKED: ENDBRANCH  12  42
DOCKED: TORSDOF 8
DOCKED: TER
DOCKED: ENDMDL
________________________________________________________________________________


	BEGINNING GENETIC ALGORITHM DOCKING 76 of 100
Run: 76 Seed: 303265004 1160721979 [ Run 76 of 100 GA/GALS ]
Beginning LAMARCKIAN GENETIC ALGORITHM (LGA), with a maximum of 2500000 energy evaluations.

Final-Value: -23.463


	FINAL GENETIC ALGORITHM DOCKED STATE
	_______________________________________________


Detailed state:  trans 54.361 78.838 10.653 quatxyzw 0.002649 -0.016530 0.006581 -0.999838 center 54.495 78.699 10.493 ntor 8 3.7302 -35.7343 23.6542 47.8358 21.0902 -19.9505 5.1111 -30.9787
State:	 54.361  78.838  10.653   0.147 -0.919  0.366 -2.061      3.73  -35.73   23.65   47.84   21.09  -19.95    5.11  -30.98

DOCKED: MODEL       76
DOCKED: USER    Run = 76
DOCKED: USER    DPF = C:/Users/georg/Desktop/fall2024/4-Computational_Biology/Assignment/executables/HEM.dpf
DOCKED: USER  
DOCKED: USER    Estimated Free Energy of Binding    =  -20.66 kcal/mol  [=(1)+(2)+(3)-(4)]
DOCKED: USER    Estimated Inhibition Constant, Ki   =  717.49 aM (attomolar)  [Temperature = 298.15 K]
DOCKED: USER    
DOCKED: USER    (1) Final Intermolecular Energy     =  -23.05 kcal/mol
DOCKED: USER        vdW + Hbond + desolv Energy     =  -18.47 kcal/mol
DOCKED: USER        Electrostatic Energy            =   -4.58 kcal/mol
DOCKED: USER    (2) Final Total Internal Energy     =   -0.42 kcal/mol
DOCKED: USER    (3) Torsional Free Energy           =   +2.39 kcal/mol
DOCKED: USER    (4) Unbound System's Energy  [=(2)] =   -0.42 kcal/mol
DOCKED: USER    
DOCKED: USER    
DOCKED: USER    NEWDPF move HEM.pdbqt
DOCKED: USER    NEWDPF about 54.495000 78.699000 10.493000
DOCKED: USER    NEWDPF tran0 54.361491 78.838376 10.652514
DOCKED: USER    NEWDPF quaternion0 0.002649 -0.016530 0.006581 -0.999838
DOCKED: USER    NEWDPF axisangle0 0.147242 -0.918938 0.365885 -2.061362
DOCKED: USER    NEWDPF quat0 0.147242 -0.918938 0.365885 -2.061362
DOCKED: USER    NEWDPF dihe0 3.73 -35.73 23.65 47.84 21.09 -19.95 5.11 -30.98 
DOCKED: USER  keepresnum = 1 
DOCKED: USER  
DOCKED: REMARK  8 active torsions:
DOCKED: REMARK  status: ('A' for Active; 'I' for Inactive)
DOCKED: REMARK    1  A    between atoms: C2A_3624  and  CAA_3628 
DOCKED: REMARK    2  A    between atoms: CAA_3628  and  CBA_3629 
DOCKED: REMARK    3  A    between atoms: CBA_3629  and  CGA_3630 
DOCKED: REMARK    4  A    between atoms: C3B_3635  and  CAB_3638 
DOCKED: REMARK    5  A    between atoms: C3C_3642  and  CAC_3645 
DOCKED: REMARK    6  A    between atoms: C3D_3649  and  CAD_3652 
DOCKED: REMARK    7  A    between atoms: CAD_3652  and  CBD_3653 
DOCKED: REMARK    8  A    between atoms: CBD_3653  and  CGD_3654 
DOCKED: USER                              x       y       z     vdW  Elec       q    Type
DOCKED: USER                           _______ _______ _______ _____ _____    ______ ____
DOCKED: ROOT
DOCKED: ATOM      1  CHA HEM A1501      54.277  81.172  10.250 -0.28 +0.04    +0.038 A 
DOCKED: ATOM      2  CHB HEM A1501      55.042  78.495  14.174 -0.40 +0.02    +0.038 A 
DOCKED: ATOM      3  CHC HEM A1501      55.425  74.543  11.433 -0.41 +0.01    +0.038 A 
DOCKED: ATOM      4  CHD HEM A1501      54.594  77.212   7.509 -0.38 +0.03    +0.038 A 
DOCKED: ATOM      5  C1A HEM A1501      54.425  80.787  11.579 -0.23 +0.07    +0.079 A 
DOCKED: ATOM      6  C2A HEM A1501      54.342  81.653  12.760 -0.34 -0.00    -0.006 A 
DOCKED: ATOM      7  C3A HEM A1501      54.559  80.891  13.822 -0.39 -0.00    -0.007 A 
DOCKED: ATOM      8  C4A HEM A1501      54.766  79.560  13.338 -0.32 +0.05    +0.079 A 
DOCKED: ATOM      9  CMA HEM A1501      54.566  81.314  15.259 -0.48 +0.01    +0.032 C 
DOCKED: ATOM     10  C1B HEM A1501      55.245  77.185  13.782 -0.33 +0.03    +0.079 A 
DOCKED: ATOM     11  C2B HEM A1501      55.553  76.098  14.704 -0.40 -0.00    -0.003 A 
DOCKED: ATOM     12  C3B HEM A1501      55.675  74.992  13.926 -0.39 +0.01    +0.015 A 
DOCKED: ATOM     13  C4B HEM A1501      55.418  75.400  12.548 -0.33 +0.03    +0.083 A 
DOCKED: ATOM     14  CMB HEM A1501      55.697  76.250  16.193 -0.56 +0.01    +0.033 C 
DOCKED: ATOM     15  C1C HEM A1501      55.209  74.862  10.120 -0.38 +0.03    +0.079 A 
DOCKED: ATOM     16  C2C HEM A1501      55.147  73.921   9.035 -0.47 -0.00    -0.003 A 
DOCKED: ATOM     17  C3C HEM A1501      54.896  74.649   7.917 -0.46 +0.01    +0.015 A 
DOCKED: ATOM     18  C4C HEM A1501      54.814  76.061   8.339 -0.36 +0.05    +0.083 A 
DOCKED: ATOM     19  CMC HEM A1501      55.337  72.428   9.207 -0.54 +0.01    +0.033 C 
DOCKED: ATOM     20  C1D HEM A1501      54.485  78.572   7.892 -0.32 +0.06    +0.079 A 
DOCKED: ATOM     21  C2D HEM A1501      54.259  79.663   6.993 -0.36 -0.01    -0.007 A 
DOCKED: ATOM     22  C3D HEM A1501      54.170  80.780   7.759 -0.34 -0.01    -0.006 A 
DOCKED: ATOM     23  C4D HEM A1501      54.337  80.367   9.139 -0.26 +0.08    +0.079 A 
DOCKED: ATOM     24  CMD HEM A1501      54.141  79.586   5.522 -0.48 +0.03    +0.032 C 
DOCKED: ATOM     25  NA  HEM A1501      54.657  79.498  11.981 -0.12 -0.17    -0.246 N 
DOCKED: ATOM     26  NB  HEM A1501      55.186  76.729  12.487 -0.13 -0.11    -0.246 N 
DOCKED: ATOM     27  NC  HEM A1501      54.981  76.117   9.661 -0.09 -0.12    -0.246 N 
DOCKED: ATOM     28  ND  HEM A1501      54.523  79.021   9.182 -0.18 -0.20    -0.246 N 
DOCKED: ATOM     29 FE   HEM A1501      54.827  77.836  10.806 -0.07 +0.00    +0.000 Fe
DOCKED: ENDROOT
DOCKED: BRANCH   6  30
DOCKED: ATOM     30  CAA HEM A1501      54.062  83.114  12.802 -0.41 +0.04    +0.039 C 
DOCKED: BRANCH  30  31
DOCKED: ATOM     31  CBA HEM A1501      52.640  83.400  13.242 -0.53 +0.11    +0.102 C 
DOCKED: BRANCH  31  32
DOCKED: ATOM     32  CGA HEM A1501      52.161  84.790  12.927 -0.43 +0.27    +0.186 C 
DOCKED: ATOM     33  O1A HEM A1501      51.242  85.276  13.627 -0.65 -0.93    -0.647 OA
DOCKED: ATOM     34  O2A HEM A1501      52.731  85.420  12.013 -0.37 -1.46    -0.647 OA
DOCKED: ENDBRANCH  31  32
DOCKED: ENDBRANCH  30  31
DOCKED: ENDBRANCH   6  30
DOCKED: BRANCH  22  35
DOCKED: ATOM     35  CAD HEM A1501      53.941  82.141   7.219 -0.43 +0.06    +0.039 C 
DOCKED: BRANCH  35  36
DOCKED: ATOM     36  CBD HEM A1501      52.705  82.198   6.321 -0.57 +0.14    +0.102 C 
DOCKED: BRANCH  36  37
DOCKED: ATOM     37  CGD HEM A1501      52.194  83.610   6.106 -0.65 +0.34    +0.186 C 
DOCKED: ATOM     38  O1D HEM A1501      51.069  83.637   5.561 -1.01 -1.35    -0.647 OA
DOCKED: ATOM     39  O2D HEM A1501      52.853  84.671   6.502 -1.14 -1.75    -0.647 OA
DOCKED: ENDBRANCH  36  37
DOCKED: ENDBRANCH  35  36
DOCKED: ENDBRANCH  22  35
DOCKED: BRANCH  17  40
DOCKED: ATOM     40  CAC HEM A1501      54.740  74.173   6.537 -0.60 +0.00    +0.001 C 
DOCKED: ATOM     41  CBC HEM A1501      53.680  74.363   5.737 -0.67 +0.00    +0.000 C 
DOCKED: ENDBRANCH  17  40
DOCKED: BRANCH  12  42
DOCKED: ATOM     42  CAB HEM A1501      55.992  73.587  14.271 -0.57 +0.00    +0.001 C 
DOCKED: ATOM     43  CBB HEM A1501      57.053  73.070  14.860 -0.65 +0.00    +0.000 C 
DOCKED: ENDBRANCH  12  42
DOCKED: TORSDOF 8
DOCKED: TER
DOCKED: ENDMDL
________________________________________________________________________________


	BEGINNING GENETIC ALGORITHM DOCKING 77 of 100
Run: 77 Seed: 1365097516 442592574 [ Run 77 of 100 GA/GALS ]
Beginning LAMARCKIAN GENETIC ALGORITHM (LGA), with a maximum of 2500000 energy evaluations.

Final-Value: -23.576


	FINAL GENETIC ALGORITHM DOCKED STATE
	_______________________________________________


Detailed state:  trans 54.965 78.996 10.802 quatxyzw -0.177431 0.972603 -0.150002 -0.007757 center 54.495 78.699 10.493 ntor 8 135.3521 -72.4517 -168.6528 -115.6762 -6.5266 13.3965 130.3235 -176.2922
State:	 54.965  78.996  10.802  -0.177  0.973 -0.150 -179.111    135.35  -72.45 -168.65 -115.68   -6.53   13.40  130.32 -176.29

DOCKED: MODEL       77
DOCKED: USER    Run = 77
DOCKED: USER    DPF = C:/Users/georg/Desktop/fall2024/4-Computational_Biology/Assignment/executables/HEM.dpf
DOCKED: USER  
DOCKED: USER    Estimated Free Energy of Binding    =  -20.77 kcal/mol  [=(1)+(2)+(3)-(4)]
DOCKED: USER    Estimated Inhibition Constant, Ki   =  601.23 aM (attomolar)  [Temperature = 298.15 K]
DOCKED: USER    
DOCKED: USER    (1) Final Intermolecular Energy     =  -23.15 kcal/mol
DOCKED: USER        vdW + Hbond + desolv Energy     =  -18.51 kcal/mol
DOCKED: USER        Electrostatic Energy            =   -4.64 kcal/mol
DOCKED: USER    (2) Final Total Internal Energy     =   -0.42 kcal/mol
DOCKED: USER    (3) Torsional Free Energy           =   +2.39 kcal/mol
DOCKED: USER    (4) Unbound System's Energy  [=(2)] =   -0.42 kcal/mol
DOCKED: USER    
DOCKED: USER    
DOCKED: USER    NEWDPF move HEM.pdbqt
DOCKED: USER    NEWDPF about 54.495000 78.699000 10.493000
DOCKED: USER    NEWDPF tran0 54.965060 78.995886 10.801971
DOCKED: USER    NEWDPF quaternion0 -0.177431 0.972603 -0.150002 -0.007757
DOCKED: USER    NEWDPF axisangle0 -0.177436 0.972633 -0.150007 -179.111135
DOCKED: USER    NEWDPF quat0 -0.177436 0.972633 -0.150007 -179.111135
DOCKED: USER    NEWDPF dihe0 135.35 -72.45 -168.65 -115.68 -6.53 13.40 130.32 -176.29 
DOCKED: USER  keepresnum = 1 
DOCKED: USER  
DOCKED: REMARK  8 active torsions:
DOCKED: REMARK  status: ('A' for Active; 'I' for Inactive)
DOCKED: REMARK    1  A    between atoms: C2A_3624  and  CAA_3628 
DOCKED: REMARK    2  A    between atoms: CAA_3628  and  CBA_3629 
DOCKED: REMARK    3  A    between atoms: CBA_3629  and  CGA_3630 
DOCKED: REMARK    4  A    between atoms: C3B_3635  and  CAB_3638 
DOCKED: REMARK    5  A    between atoms: C3C_3642  and  CAC_3645 
DOCKED: REMARK    6  A    between atoms: C3D_3649  and  CAD_3652 
DOCKED: REMARK    7  A    between atoms: CAD_3652  and  CBD_3653 
DOCKED: REMARK    8  A    between atoms: CBD_3653  and  CGD_3654 
DOCKED: USER                              x       y       z     vdW  Elec       q    Type
DOCKED: USER                           _______ _______ _______ _____ _____    ______ ____
DOCKED: ROOT
DOCKED: ATOM      1  CHA HEM A1501      54.200  81.218  10.506 -0.28 +0.04    +0.038 A 
DOCKED: ATOM      2  CHB HEM A1501      54.577  77.411   7.589 -0.38 +0.03    +0.038 A 
DOCKED: ATOM      3  CHC HEM A1501      55.526  74.574  11.375 -0.40 +0.01    +0.038 A 
DOCKED: ATOM      4  CHD HEM A1501      55.214  78.399  14.289 -0.39 +0.01    +0.038 A 
DOCKED: ATOM      5  C1A HEM A1501      54.246  80.432   9.360 -0.25 +0.08    +0.079 A 
DOCKED: ATOM      6  C2A HEM A1501      54.058  80.881   7.977 -0.36 -0.01    -0.006 A 
DOCKED: ATOM      7  C3A HEM A1501      54.164  79.814   7.198 -0.36 -0.01    -0.007 A 
DOCKED: ATOM      8  C4A HEM A1501      54.426  78.701   8.059 -0.32 +0.06    +0.079 A 
DOCKED: ATOM      9  CMA HEM A1501      54.058  79.762   5.704 -0.48 +0.03    +0.032 C 
DOCKED: ATOM     10  C1B HEM A1501      54.839  76.291   8.357 -0.35 +0.04    +0.079 A 
DOCKED: ATOM     11  C2B HEM A1501      54.970  74.945   7.813 -0.47 -0.00    -0.003 A 
DOCKED: ATOM     12  C3B HEM A1501      55.221  74.149   8.885 -0.45 +0.01    +0.015 A 
DOCKED: ATOM     13  C4B HEM A1501      55.267  75.010  10.063 -0.36 +0.03    +0.083 A 
DOCKED: ATOM     14  CMB HEM A1501      54.835  74.589   6.358 -0.59 +0.02    +0.033 C 
DOCKED: ATOM     15  C1C HEM A1501      55.568  75.322  12.521 -0.34 +0.03    +0.079 A 
DOCKED: ATOM     16  C2C HEM A1501      55.922  74.829  13.823 -0.43 -0.00    -0.003 A 
DOCKED: ATOM     17  C3C HEM A1501      55.857  75.894  14.663 -0.40 +0.01    +0.015 A 
DOCKED: ATOM     18  C4C HEM A1501      55.448  77.053  13.846 -0.32 +0.03    +0.083 A 
DOCKED: ATOM     19  CMC HEM A1501      56.281  73.384  14.105 -0.56 +0.01    +0.033 C 
DOCKED: ATOM     20  C1D HEM A1501      54.846  79.533  13.524 -0.33 +0.04    +0.079 A 
DOCKED: ATOM     21  C2D HEM A1501      54.638  80.847  14.050 -0.40 -0.00    -0.007 A 
DOCKED: ATOM     22  C3D HEM A1501      54.351  81.645  12.989 -0.34 -0.00    -0.006 A 
DOCKED: ATOM     23  C4D HEM A1501      54.391  80.811  11.803 -0.24 +0.07    +0.079 A 
DOCKED: ATOM     24  CMD HEM A1501      54.723  81.255  15.467 -0.47 +0.01    +0.032 C 
DOCKED: ATOM     25  NA  HEM A1501      54.502  79.086   9.366 -0.17 -0.20    -0.246 N 
DOCKED: ATOM     26  NB  HEM A1501      55.010  76.290   9.720 -0.02 -0.12    -0.246 N 
DOCKED: ATOM     27  NC  HEM A1501      55.318  76.653  12.579 -0.16 -0.11    -0.246 N 
DOCKED: ATOM     28  ND  HEM A1501      54.697  79.537  12.165 -0.14 -0.17    -0.246 N 
DOCKED: ATOM     29 FE   HEM A1501      54.892  77.896  10.979 -0.07 +0.00    +0.000 Fe
DOCKED: ENDROOT
DOCKED: BRANCH   6  30
DOCKED: ATOM     30  CAA HEM A1501      53.801  82.265   7.493 -0.42 +0.06    +0.039 C 
DOCKED: BRANCH  30  31
DOCKED: ATOM     31  CBA HEM A1501      52.636  82.314   6.524 -0.57 +0.15    +0.102 C 
DOCKED: BRANCH  31  32
DOCKED: ATOM     32  CGA HEM A1501      52.165  83.703   6.191 -0.64 +0.35    +0.186 C 
DOCKED: ATOM     33  O1A HEM A1501      52.887  84.671   6.523 -1.14 -1.77    -0.647 OA
DOCKED: ATOM     34  O2A HEM A1501      51.097  83.831   5.558 -1.00 -1.35    -0.647 OA
DOCKED: ENDBRANCH  31  32
DOCKED: ENDBRANCH  30  31
DOCKED: ENDBRANCH   6  30
DOCKED: BRANCH  22  35
DOCKED: ATOM     35  CAD HEM A1501      54.062  83.094  13.095 -0.41 +0.04    +0.039 C 
DOCKED: BRANCH  35  36
DOCKED: ATOM     36  CBD HEM A1501      52.567  83.369  13.249 -0.53 +0.11    +0.102 C 
DOCKED: BRANCH  36  37
DOCKED: ATOM     37  CGD HEM A1501      52.201  84.818  12.988 -0.44 +0.28    +0.186 C 
DOCKED: ATOM     38  O1D HEM A1501      52.994  85.381  12.202 -0.45 -1.50    -0.647 OA
DOCKED: ATOM     39  O2D HEM A1501      51.136  85.384  13.501 -0.74 -0.97    -0.647 OA
DOCKED: ENDBRANCH  36  37
DOCKED: ENDBRANCH  35  36
DOCKED: ENDBRANCH  22  35
DOCKED: BRANCH  17  40
DOCKED: ATOM     40  CAC HEM A1501      56.124  75.933  16.106 -0.57 +0.00    +0.001 C 
DOCKED: ATOM     41  CBC HEM A1501      55.214  76.026  17.088 -0.66 +0.00    +0.000 C 
DOCKED: ENDBRANCH  17  40
DOCKED: BRANCH  12  42
DOCKED: ATOM     42  CAB HEM A1501      55.437  72.687   8.984 -0.54 +0.00    +0.001 C 
DOCKED: ATOM     43  CBB HEM A1501      54.594  71.717   9.278 -0.54 +0.00    +0.000 C 
DOCKED: ENDBRANCH  12  42
DOCKED: TORSDOF 8
DOCKED: TER
DOCKED: ENDMDL
________________________________________________________________________________


	BEGINNING GENETIC ALGORITHM DOCKING 78 of 100
Run: 78 Seed: 557974505 1769556297 [ Run 78 of 100 GA/GALS ]
Beginning LAMARCKIAN GENETIC ALGORITHM (LGA), with a maximum of 2500000 energy evaluations.

Final-Value: -23.495


	FINAL GENETIC ALGORITHM DOCKED STATE
	_______________________________________________


Detailed state:  trans 54.299 78.775 10.614 quatxyzw 0.020524 -0.011403 0.025585 -0.999397 center 54.495 78.699 10.493 ntor 8 5.1109 -11.6533 31.5485 179.9749 8.0353 16.4666 -1.6165 -5.1390
State:	 54.299  78.775  10.614   0.591 -0.328  0.737 -3.980      5.11  -11.65   31.55  179.97    8.04   16.47   -1.62   -5.14

DOCKED: MODEL       78
DOCKED: USER    Run = 78
DOCKED: USER    DPF = C:/Users/georg/Desktop/fall2024/4-Computational_Biology/Assignment/executables/HEM.dpf
DOCKED: USER  
DOCKED: USER    Estimated Free Energy of Binding    =  -20.54 kcal/mol  [=(1)+(2)+(3)-(4)]
DOCKED: USER    Estimated Inhibition Constant, Ki   =  883.28 aM (attomolar)  [Temperature = 298.15 K]
DOCKED: USER    
DOCKED: USER    (1) Final Intermolecular Energy     =  -22.92 kcal/mol
DOCKED: USER        vdW + Hbond + desolv Energy     =  -18.76 kcal/mol
DOCKED: USER        Electrostatic Energy            =   -4.16 kcal/mol
DOCKED: USER    (2) Final Total Internal Energy     =   -0.57 kcal/mol
DOCKED: USER    (3) Torsional Free Energy           =   +2.39 kcal/mol
DOCKED: USER    (4) Unbound System's Energy  [=(2)] =   -0.57 kcal/mol
DOCKED: USER    
DOCKED: USER    
DOCKED: USER    NEWDPF move HEM.pdbqt
DOCKED: USER    NEWDPF about 54.495000 78.699000 10.493000
DOCKED: USER    NEWDPF tran0 54.298884 78.775004 10.614463
DOCKED: USER    NEWDPF quaternion0 0.020524 -0.011403 0.025585 -0.999397
DOCKED: USER    NEWDPF axisangle0 0.591029 -0.328389 0.736780 -3.980017
DOCKED: USER    NEWDPF quat0 0.591029 -0.328389 0.736780 -3.980017
DOCKED: USER    NEWDPF dihe0 5.11 -11.65 31.55 179.97 8.04 16.47 -1.62 -5.14 
DOCKED: USER  keepresnum = 1 
DOCKED: USER  
DOCKED: REMARK  8 active torsions:
DOCKED: REMARK  status: ('A' for Active; 'I' for Inactive)
DOCKED: REMARK    1  A    between atoms: C2A_3624  and  CAA_3628 
DOCKED: REMARK    2  A    between atoms: CAA_3628  and  CBA_3629 
DOCKED: REMARK    3  A    between atoms: CBA_3629  and  CGA_3630 
DOCKED: REMARK    4  A    between atoms: C3B_3635  and  CAB_3638 
DOCKED: REMARK    5  A    between atoms: C3C_3642  and  CAC_3645 
DOCKED: REMARK    6  A    between atoms: C3D_3649  and  CAD_3652 
DOCKED: REMARK    7  A    between atoms: CAD_3652  and  CBD_3653 
DOCKED: REMARK    8  A    between atoms: CBD_3653  and  CGD_3654 
DOCKED: USER                              x       y       z     vdW  Elec       q    Type
DOCKED: USER                           _______ _______ _______ _____ _____    ______ ____
DOCKED: ROOT
DOCKED: ATOM      1  CHA HEM A1501      54.121  81.116  10.296 -0.28 +0.04    +0.038 A 
DOCKED: ATOM      2  CHB HEM A1501      55.031  78.336  14.115 -0.40 +0.02    +0.038 A 
DOCKED: ATOM      3  CHC HEM A1501      55.536  74.500  11.233 -0.41 +0.01    +0.038 A 
DOCKED: ATOM      4  CHD HEM A1501      54.559  77.270   7.414 -0.39 +0.03    +0.038 A 
DOCKED: ATOM      5  C1A HEM A1501      54.298  80.691  11.608 -0.21 +0.07    +0.079 A 
DOCKED: ATOM      6  C2A HEM A1501      54.194  81.511  12.819 -0.36 -0.00    -0.006 A 
DOCKED: ATOM      7  C3A HEM A1501      54.452  80.722  13.852 -0.41 -0.00    -0.007 A 
DOCKED: ATOM      8  C4A HEM A1501      54.705  79.418  13.320 -0.33 +0.05    +0.079 A 
DOCKED: ATOM      9  CMA HEM A1501      54.459  81.095  15.304 -0.43 +0.01    +0.032 C 
DOCKED: ATOM     10  C1B HEM A1501      55.280  77.049  13.675 -0.32 +0.03    +0.079 A 
DOCKED: ATOM     11  C2B HEM A1501      55.639  75.944  14.555 -0.39 -0.00    -0.003 A 
DOCKED: ATOM     12  C3B HEM A1501      55.796  74.871  13.737 -0.41 +0.01    +0.015 A 
DOCKED: ATOM     13  C4B HEM A1501      55.508  75.317  12.377 -0.34 +0.03    +0.083 A 
DOCKED: ATOM     14  CMB HEM A1501      55.794  76.049  16.048 -0.54 +0.01    +0.033 C 
DOCKED: ATOM     15  C1C HEM A1501      55.292  74.855   9.934 -0.38 +0.03    +0.079 A 
DOCKED: ATOM     16  C2C HEM A1501      55.255  73.952   8.818 -0.46 -0.00    -0.003 A 
DOCKED: ATOM     17  C3C HEM A1501      54.964  74.707   7.727 -0.46 +0.01    +0.015 A 
DOCKED: ATOM     18  C4C HEM A1501      54.832  76.099   8.200 -0.36 +0.05    +0.083 A 
DOCKED: ATOM     19  CMC HEM A1501      55.504  72.462   8.934 -0.51 +0.01    +0.033 C 
DOCKED: ATOM     20  C1D HEM A1501      54.402  78.610   7.845 -0.33 +0.06    +0.079 A 
DOCKED: ATOM     21  C2D HEM A1501      54.124  79.722   6.987 -0.37 -0.01    -0.007 A 
DOCKED: ATOM     22  C3D HEM A1501      54.001  80.807   7.793 -0.36 -0.01    -0.006 A 
DOCKED: ATOM     23  C4D HEM A1501      54.199  80.353   9.156 -0.27 +0.08    +0.079 A 
DOCKED: ATOM     24  CMD HEM A1501      53.994  79.691   5.516 -0.48 +0.03    +0.032 C 
DOCKED: ATOM     25  NA  HEM A1501      54.584  79.399  11.962 -0.10 -0.17    -0.246 N 
DOCKED: ATOM     26  NB  HEM A1501      55.224  76.636  12.366 -0.12 -0.11    -0.246 N 
DOCKED: ATOM     27  NC  HEM A1501      55.012  76.116   9.522 -0.14 -0.12    -0.246 N 
DOCKED: ATOM     28  ND  HEM A1501      54.437  79.015   9.150 -0.19 -0.20    -0.246 N 
DOCKED: ATOM     29 FE   HEM A1501      54.804  77.786  10.728 -0.07 +0.00    +0.000 Fe
DOCKED: ENDROOT
DOCKED: BRANCH   6  30
DOCKED: ATOM     30  CAA HEM A1501      53.859  82.958  12.916 -0.44 +0.04    +0.039 C 
DOCKED: BRANCH  30  31
DOCKED: ATOM     31  CBA HEM A1501      52.390  83.174  13.220 -0.49 +0.10    +0.102 C 
DOCKED: BRANCH  31  32
DOCKED: ATOM     32  CGA HEM A1501      51.966  84.617  13.236 -0.51 +0.25    +0.186 C 
DOCKED: ATOM     33  O1A HEM A1501      51.054  84.960  14.024 -0.56 -0.84    -0.647 OA
DOCKED: ATOM     34  O2A HEM A1501      52.571  85.421  12.498 -0.53 -1.36    -0.647 OA
DOCKED: ENDBRANCH  31  32
DOCKED: ENDBRANCH  30  31
DOCKED: ENDBRANCH   6  30
DOCKED: BRANCH  22  35
DOCKED: ATOM     35  CAD HEM A1501      53.714  82.176   7.304 -0.45 +0.06    +0.039 C 
DOCKED: BRANCH  35  36
DOCKED: ATOM     36  CBD HEM A1501      52.231  82.370   6.988 -0.58 +0.16    +0.102 C 
DOCKED: BRANCH  36  37
DOCKED: ATOM     37  CGD HEM A1501      51.968  83.563   6.087 -0.62 +0.35    +0.186 C 
DOCKED: ATOM     38  O1D HEM A1501      52.726  84.527   6.332 -1.11 -1.60    -0.647 OA
DOCKED: ATOM     39  O2D HEM A1501      51.075  83.545   5.129 -1.16 -1.27    -0.647 OA
DOCKED: ENDBRANCH  36  37
DOCKED: ENDBRANCH  35  36
DOCKED: ENDBRANCH  22  35
DOCKED: BRANCH  17  40
DOCKED: ATOM     40  CAC HEM A1501      54.811  74.274   6.334 -0.61 +0.00    +0.001 C 
DOCKED: ATOM     41  CBC HEM A1501      53.745  74.473   5.543 -0.67 +0.00    +0.000 C 
DOCKED: ENDBRANCH  17  40
DOCKED: BRANCH  12  42
DOCKED: ATOM     42  CAB HEM A1501      56.170  73.468  14.030 -0.57 +0.00    +0.001 C 
DOCKED: ATOM     43  CBB HEM A1501      57.004  72.975  14.924 -0.65 +0.00    +0.000 C 
DOCKED: ENDBRANCH  12  42
DOCKED: TORSDOF 8
DOCKED: TER
DOCKED: ENDMDL
________________________________________________________________________________


	BEGINNING GENETIC ALGORITHM DOCKING 79 of 100
Run: 79 Seed: 1081148474 1531155171 [ Run 79 of 100 GA/GALS ]
Beginning LAMARCKIAN GENETIC ALGORITHM (LGA), with a maximum of 2500000 energy evaluations.

Final-Value: -22.023


	FINAL GENETIC ALGORITHM DOCKED STATE
	_______________________________________________


Detailed state:  trans 54.344 78.789 10.604 quatxyzw 0.009249 -0.012620 0.012988 -0.999793 center 54.495 78.699 10.493 ntor 8 5.3906 -20.9987 -100.6338 42.2930 50.7363 -13.3875 -166.6296 -30.5385
State:	 54.344  78.789  10.604   0.455 -0.621  0.639 -2.330      5.39  -21.00 -100.63   42.29   50.74  -13.39 -166.63  -30.54

DOCKED: MODEL       79
DOCKED: USER    Run = 79
DOCKED: USER    DPF = C:/Users/georg/Desktop/fall2024/4-Computational_Biology/Assignment/executables/HEM.dpf
DOCKED: USER  
DOCKED: USER    Estimated Free Energy of Binding    =  -19.08 kcal/mol  [=(1)+(2)+(3)-(4)]
DOCKED: USER    Estimated Inhibition Constant, Ki   =   10.38 fM (femtomolar)  [Temperature = 298.15 K]
DOCKED: USER    
DOCKED: USER    (1) Final Intermolecular Energy     =  -21.46 kcal/mol
DOCKED: USER        vdW + Hbond + desolv Energy     =  -17.60 kcal/mol
DOCKED: USER        Electrostatic Energy            =   -3.87 kcal/mol
DOCKED: USER    (2) Final Total Internal Energy     =   -0.56 kcal/mol
DOCKED: USER    (3) Torsional Free Energy           =   +2.39 kcal/mol
DOCKED: USER    (4) Unbound System's Energy  [=(2)] =   -0.56 kcal/mol
DOCKED: USER    
DOCKED: USER    
DOCKED: USER    NEWDPF move HEM.pdbqt
DOCKED: USER    NEWDPF about 54.495000 78.699000 10.493000
DOCKED: USER    NEWDPF tran0 54.344175 78.789418 10.603606
DOCKED: USER    NEWDPF quaternion0 0.009249 -0.012620 0.012988 -0.999793
DOCKED: USER    NEWDPF axisangle0 0.454841 -0.620618 0.638712 -2.330365
DOCKED: USER    NEWDPF quat0 0.454841 -0.620618 0.638712 -2.330365
DOCKED: USER    NEWDPF dihe0 5.39 -21.00 -100.63 42.29 50.74 -13.39 -166.63 -30.54 
DOCKED: USER  keepresnum = 1 
DOCKED: USER  
DOCKED: REMARK  8 active torsions:
DOCKED: REMARK  status: ('A' for Active; 'I' for Inactive)
DOCKED: REMARK    1  A    between atoms: C2A_3624  and  CAA_3628 
DOCKED: REMARK    2  A    between atoms: CAA_3628  and  CBA_3629 
DOCKED: REMARK    3  A    between atoms: CBA_3629  and  CGA_3630 
DOCKED: REMARK    4  A    between atoms: C3B_3635  and  CAB_3638 
DOCKED: REMARK    5  A    between atoms: C3C_3642  and  CAC_3645 
DOCKED: REMARK    6  A    between atoms: C3D_3649  and  CAD_3652 
DOCKED: REMARK    7  A    between atoms: CAD_3652  and  CBD_3653 
DOCKED: REMARK    8  A    between atoms: CBD_3653  and  CGD_3654 
DOCKED: USER                              x       y       z     vdW  Elec       q    Type
DOCKED: USER                           _______ _______ _______ _____ _____    ______ ____
DOCKED: ROOT
DOCKED: ATOM      1  CHA HEM A1501      54.226  81.126  10.232 -0.28 +0.04    +0.038 A 
DOCKED: ATOM      2  CHB HEM A1501      55.057  78.410  14.115 -0.40 +0.02    +0.038 A 
DOCKED: ATOM      3  CHC HEM A1501      55.470  74.499  11.320 -0.41 +0.01    +0.038 A 
DOCKED: ATOM      4  CHD HEM A1501      54.573  77.207   7.438 -0.39 +0.03    +0.038 A 
DOCKED: ATOM      5  C1A HEM A1501      54.390  80.726  11.555 -0.22 +0.07    +0.079 A 
DOCKED: ATOM      6  C2A HEM A1501      54.305  81.576  12.747 -0.34 -0.00    -0.006 A 
DOCKED: ATOM      7  C3A HEM A1501      54.540  80.804  13.798 -0.40 -0.00    -0.007 A 
DOCKED: ATOM      8  C4A HEM A1501      54.761  79.482  13.295 -0.32 +0.05    +0.079 A 
DOCKED: ATOM      9  CMA HEM A1501      54.553  81.208  15.241 -0.47 +0.01    +0.032 C 
DOCKED: ATOM     10  C1B HEM A1501      55.274  77.108  13.705 -0.32 +0.03    +0.079 A 
DOCKED: ATOM     11  C2B HEM A1501      55.603  76.013  14.610 -0.40 -0.00    -0.003 A 
DOCKED: ATOM     12  C3B HEM A1501      55.734  74.919  13.816 -0.40 +0.01    +0.015 A 
DOCKED: ATOM     13  C4B HEM A1501      55.461  75.341  12.446 -0.34 +0.03    +0.083 A 
DOCKED: ATOM     14  CMB HEM A1501      55.757  76.147  16.100 -0.55 +0.01    +0.033 C 
DOCKED: ATOM     15  C1C HEM A1501      55.239  74.832  10.013 -0.38 +0.03    +0.079 A 
DOCKED: ATOM     16  C2C HEM A1501      55.180  73.904   8.917 -0.47 -0.00    -0.003 A 
DOCKED: ATOM     17  C3C HEM A1501      54.911  74.643   7.809 -0.46 +0.01    +0.015 A 
DOCKED: ATOM     18  C4C HEM A1501      54.814  76.048   8.251 -0.37 +0.05    +0.083 A 
DOCKED: ATOM     19  CMC HEM A1501      55.391  72.412   9.067 -0.53 +0.01    +0.033 C 
DOCKED: ATOM     20  C1D HEM A1501      54.450  78.560   7.839 -0.33 +0.06    +0.079 A 
DOCKED: ATOM     21  C2D HEM A1501      54.202  79.659   6.956 -0.37 -0.01    -0.007 A 
DOCKED: ATOM     22  C3D HEM A1501      54.104  80.765   7.737 -0.35 -0.01    -0.006 A 
DOCKED: ATOM     23  C4D HEM A1501      54.287  80.337   9.111 -0.26 +0.08    +0.079 A 
DOCKED: ATOM     24  CMD HEM A1501      54.074  79.600   5.486 -0.48 +0.03    +0.032 C 
DOCKED: ATOM     25  NA  HEM A1501      54.642  79.435  11.938 -0.11 -0.17    -0.246 N 
DOCKED: ATOM     26  NB  HEM A1501      55.210  76.667  12.404 -0.12 -0.11    -0.246 N 
DOCKED: ATOM     27  NC  HEM A1501      54.991  76.090   9.572 -0.13 -0.12    -0.246 N 
DOCKED: ATOM     28  ND  HEM A1501      54.491  78.993   9.134 -0.18 -0.20    -0.246 N 
DOCKED: ATOM     29 FE   HEM A1501      54.824  77.791  10.741 -0.07 +0.00    +0.000 Fe
DOCKED: ENDROOT
DOCKED: BRANCH   6  30
DOCKED: ATOM     30  CAA HEM A1501      54.007  83.033  12.811 -0.41 +0.04    +0.039 C 
DOCKED: BRANCH  30  31
DOCKED: ATOM     31  CBA HEM A1501      55.129  83.861  12.217 -0.24 +0.14    +0.102 C 
DOCKED: BRANCH  31  32
DOCKED: ATOM     32  CGA HEM A1501      55.545  85.035  13.059 -0.28 +0.24    +0.186 C 
DOCKED: ATOM     33  O1A HEM A1501      56.317  84.830  14.025 -0.03 -0.44    -0.647 OA
DOCKED: ATOM     34  O2A HEM A1501      55.143  86.171  12.734 -0.44 -1.30    -0.647 OA
DOCKED: ENDBRANCH  31  32
DOCKED: ENDBRANCH  30  31
DOCKED: ENDBRANCH   6  30
DOCKED: BRANCH  22  35
DOCKED: ATOM     35  CAD HEM A1501      53.853  82.130   7.217 -0.44 +0.06    +0.039 C 
DOCKED: BRANCH  35  36
DOCKED: ATOM     36  CBD HEM A1501      52.604  82.185   6.338 -0.58 +0.15    +0.102 C 
DOCKED: BRANCH  36  37
DOCKED: ATOM     37  CGD HEM A1501      52.168  83.602   6.016 -0.65 +0.34    +0.186 C 
DOCKED: ATOM     38  O1D HEM A1501      51.086  83.642   5.391 -1.04 -1.32    -0.647 OA
DOCKED: ATOM     39  O2D HEM A1501      52.840  84.657   6.406 -1.15 -1.71    -0.647 OA
DOCKED: ENDBRANCH  36  37
DOCKED: ENDBRANCH  35  36
DOCKED: ENDBRANCH  22  35
DOCKED: BRANCH  17  40
DOCKED: ATOM     40  CAC HEM A1501      54.750  74.183   6.425 -0.61 +0.00    +0.001 C 
DOCKED: ATOM     41  CBC HEM A1501      53.694  74.395   5.625 -0.67 +0.00    +0.000 C 
DOCKED: ENDBRANCH  17  40
DOCKED: BRANCH  12  42
DOCKED: ATOM     42  CAB HEM A1501      56.072  73.514  14.141 -0.57 +0.00    +0.001 C 
DOCKED: ATOM     43  CBB HEM A1501      57.005  73.020  14.931 -0.65 +0.00    +0.000 C 
DOCKED: ENDBRANCH  12  42
DOCKED: TORSDOF 8
DOCKED: TER
DOCKED: ENDMDL
________________________________________________________________________________


	BEGINNING GENETIC ALGORITHM DOCKING 80 of 100
Run: 80 Seed: 1288583342 930529488 [ Run 80 of 100 GA/GALS ]
Beginning LAMARCKIAN GENETIC ALGORITHM (LGA), with a maximum of 2500000 energy evaluations.

Final-Value: -23.679


	FINAL GENETIC ALGORITHM DOCKED STATE
	_______________________________________________


Detailed state:  trans 55.018 79.024 10.826 quatxyzw -0.177314 0.971743 -0.154657 -0.018862 center 54.495 78.699 10.493 ntor 8 143.6644 -64.8567 143.6234 -113.6326 24.3309 13.8999 164.7987 -170.8693
State:	 55.018  79.024  10.826  -0.177  0.972 -0.155 -177.838    143.66  -64.86  143.62 -113.63   24.33   13.90  164.80 -170.87

DOCKED: MODEL       80
DOCKED: USER    Run = 80
DOCKED: USER    DPF = C:/Users/georg/Desktop/fall2024/4-Computational_Biology/Assignment/executables/HEM.dpf
DOCKED: USER  
DOCKED: USER    Estimated Free Energy of Binding    =  -20.71 kcal/mol  [=(1)+(2)+(3)-(4)]
DOCKED: USER    Estimated Inhibition Constant, Ki   =  658.46 aM (attomolar)  [Temperature = 298.15 K]
DOCKED: USER    
DOCKED: USER    (1) Final Intermolecular Energy     =  -23.10 kcal/mol
DOCKED: USER        vdW + Hbond + desolv Energy     =  -18.63 kcal/mol
DOCKED: USER        Electrostatic Energy            =   -4.46 kcal/mol
DOCKED: USER    (2) Final Total Internal Energy     =   -0.58 kcal/mol
DOCKED: USER    (3) Torsional Free Energy           =   +2.39 kcal/mol
DOCKED: USER    (4) Unbound System's Energy  [=(2)] =   -0.58 kcal/mol
DOCKED: USER    
DOCKED: USER    
DOCKED: USER    NEWDPF move HEM.pdbqt
DOCKED: USER    NEWDPF about 54.495000 78.699000 10.493000
DOCKED: USER    NEWDPF tran0 55.017803 79.024403 10.825822
DOCKED: USER    NEWDPF quaternion0 -0.177314 0.971743 -0.154657 -0.018862
DOCKED: USER    NEWDPF axisangle0 -0.177345 0.971916 -0.154684 -177.838402
DOCKED: USER    NEWDPF quat0 -0.177345 0.971916 -0.154684 -177.838402
DOCKED: USER    NEWDPF dihe0 143.66 -64.86 143.62 -113.63 24.33 13.90 164.80 -170.87 
DOCKED: USER  keepresnum = 1 
DOCKED: USER  
DOCKED: REMARK  8 active torsions:
DOCKED: REMARK  status: ('A' for Active; 'I' for Inactive)
DOCKED: REMARK    1  A    between atoms: C2A_3624  and  CAA_3628 
DOCKED: REMARK    2  A    between atoms: CAA_3628  and  CBA_3629 
DOCKED: REMARK    3  A    between atoms: CBA_3629  and  CGA_3630 
DOCKED: REMARK    4  A    between atoms: C3B_3635  and  CAB_3638 
DOCKED: REMARK    5  A    between atoms: C3C_3642  and  CAC_3645 
DOCKED: REMARK    6  A    between atoms: C3D_3649  and  CAD_3652 
DOCKED: REMARK    7  A    between atoms: CAD_3652  and  CBD_3653 
DOCKED: REMARK    8  A    between atoms: CBD_3653  and  CGD_3654 
DOCKED: USER                              x       y       z     vdW  Elec       q    Type
DOCKED: USER                           _______ _______ _______ _____ _____    ______ ____
DOCKED: ROOT
DOCKED: ATOM      1  CHA HEM A1501      54.253  81.243  10.500 -0.28 +0.04    +0.038 A 
DOCKED: ATOM      2  CHB HEM A1501      54.709  77.422   7.614 -0.36 +0.03    +0.038 A 
DOCKED: ATOM      3  CHC HEM A1501      55.579  74.608  11.436 -0.40 +0.01    +0.038 A 
DOCKED: ATOM      4  CHD HEM A1501      55.188  78.447  14.321 -0.39 +0.01    +0.038 A 
DOCKED: ATOM      5  C1A HEM A1501      54.328  80.450   9.360 -0.25 +0.08    +0.079 A 
DOCKED: ATOM      6  C2A HEM A1501      54.171  80.892   7.970 -0.34 -0.01    -0.006 A 
DOCKED: ATOM      7  C3A HEM A1501      54.298  79.821   7.200 -0.35 -0.01    -0.007 A 
DOCKED: ATOM      8  C4A HEM A1501      54.544  78.714   8.073 -0.31 +0.06    +0.079 A 
DOCKED: ATOM      9  CMA HEM A1501      54.227  79.761   5.705 -0.47 +0.03    +0.032 C 
DOCKED: ATOM     10  C1B HEM A1501      54.957  76.306   8.393 -0.33 +0.04    +0.079 A 
DOCKED: ATOM     11  C2B HEM A1501      55.106  74.958   7.860 -0.46 -0.00    -0.003 A 
DOCKED: ATOM     12  C3B HEM A1501      55.335  74.168   8.942 -0.45 +0.01    +0.015 A 
DOCKED: ATOM     13  C4B HEM A1501      55.350  75.035  10.116 -0.36 +0.03    +0.083 A 
DOCKED: ATOM     14  CMB HEM A1501      55.006  74.593   6.404 -0.58 +0.02    +0.033 C 
DOCKED: ATOM     15  C1C HEM A1501      55.593  75.362  12.578 -0.34 +0.03    +0.079 A 
DOCKED: ATOM     16  C2C HEM A1501      55.917  74.877  13.891 -0.43 -0.00    -0.003 A 
DOCKED: ATOM     17  C3C HEM A1501      55.830  75.946  14.723 -0.40 +0.01    +0.015 A 
DOCKED: ATOM     18  C4C HEM A1501      55.436  77.100  13.891 -0.33 +0.03    +0.083 A 
DOCKED: ATOM     19  CMC HEM A1501      56.275  73.435  14.189 -0.57 +0.01    +0.033 C 
DOCKED: ATOM     20  C1D HEM A1501      54.833  79.575  13.541 -0.33 +0.04    +0.079 A 
DOCKED: ATOM     21  C2D HEM A1501      54.609  80.892  14.055 -0.40 -0.00    -0.007 A 
DOCKED: ATOM     22  C3D HEM A1501      54.345  81.683  12.984 -0.34 -0.00    -0.006 A 
DOCKED: ATOM     23  C4D HEM A1501      54.415  80.843  11.804 -0.24 +0.07    +0.079 A 
DOCKED: ATOM     24  CMD HEM A1501      54.659  81.307  15.472 -0.48 +0.01    +0.032 C 
DOCKED: ATOM     25  NA  HEM A1501      54.588  79.105   9.379 -0.17 -0.20    -0.246 N 
DOCKED: ATOM     26  NB  HEM A1501      55.097  76.313   9.760 -0.07 -0.12    -0.246 N 
DOCKED: ATOM     27  NC  HEM A1501      55.337  76.693  12.624 -0.17 -0.11    -0.246 N 
DOCKED: ATOM     28  ND  HEM A1501      54.716  79.572  12.179 -0.15 -0.17    -0.246 N 
DOCKED: ATOM     29 FE   HEM A1501      54.945  77.926  11.007 -0.07 +0.00    +0.000 Fe
DOCKED: ENDROOT
DOCKED: BRANCH   6  30
DOCKED: ATOM     30  CAA HEM A1501      53.921  82.272   7.473 -0.41 +0.06    +0.039 C 
DOCKED: BRANCH  30  31
DOCKED: ATOM     31  CBA HEM A1501      52.447  82.517   7.216 -0.55 +0.17    +0.102 C 
DOCKED: BRANCH  31  32
DOCKED: ATOM     32  CGA HEM A1501      52.163  83.666   6.287 -0.64 +0.36    +0.186 C 
DOCKED: ATOM     33  O1A HEM A1501      52.914  84.667   6.333 -1.20 -1.71    -0.647 OA
DOCKED: ATOM     34  O2A HEM A1501      51.219  83.555   5.478 -1.05 -1.28    -0.647 OA
DOCKED: ENDBRANCH  31  32
DOCKED: ENDBRANCH  30  31
DOCKED: ENDBRANCH   6  30
DOCKED: BRANCH  22  35
DOCKED: ATOM     35  CAD HEM A1501      54.049  83.132  13.075 -0.41 +0.04    +0.039 C 
DOCKED: BRANCH  35  36
DOCKED: ATOM     36  CBD HEM A1501      52.564  83.397  13.326 -0.53 +0.11    +0.102 C 
DOCKED: BRANCH  36  37
DOCKED: ATOM     37  CGD HEM A1501      52.164  84.833  13.045 -0.46 +0.27    +0.186 C 
DOCKED: ATOM     38  O1D HEM A1501      52.867  85.364  12.158 -0.45 -1.46    -0.647 OA
DOCKED: ATOM     39  O2D HEM A1501      51.154  85.418  13.643 -0.79 -0.96    -0.647 OA
DOCKED: ENDBRANCH  36  37
DOCKED: ENDBRANCH  35  36
DOCKED: ENDBRANCH  22  35
DOCKED: BRANCH  17  40
DOCKED: ATOM     40  CAC HEM A1501      56.062  75.994  16.171 -0.57 +0.00    +0.001 C 
DOCKED: ATOM     41  CBC HEM A1501      55.132  75.933  17.137 -0.66 +0.00    +0.000 C 
DOCKED: ENDBRANCH  17  40
DOCKED: BRANCH  12  42
DOCKED: ATOM     42  CAB HEM A1501      55.552  72.707   9.053 -0.53 +0.00    +0.001 C 
DOCKED: ATOM     43  CBB HEM A1501      54.688  71.724   9.202 -0.56 +0.00    +0.000 C 
DOCKED: ENDBRANCH  12  42
DOCKED: TORSDOF 8
DOCKED: TER
DOCKED: ENDMDL
________________________________________________________________________________


	BEGINNING GENETIC ALGORITHM DOCKING 81 of 100
Run: 81 Seed: 1663658916 723242251 [ Run 81 of 100 GA/GALS ]
Beginning LAMARCKIAN GENETIC ALGORITHM (LGA), with a maximum of 2500000 energy evaluations.

Final-Value: -23.569


	FINAL GENETIC ALGORITHM DOCKED STATE
	_______________________________________________


Detailed state:  trans 54.898 79.020 10.811 quatxyzw -0.188780 0.970840 -0.147140 -0.013506 center 54.495 78.699 10.493 ntor 8 131.8931 -74.0515 -170.0957 -99.9582 1.8524 5.7087 128.5659 178.0592
State:	 54.898  79.020  10.811  -0.189  0.971 -0.147 -178.452    131.89  -74.05 -170.10  -99.96    1.85    5.71  128.57  178.06

DOCKED: MODEL       81
DOCKED: USER    Run = 81
DOCKED: USER    DPF = C:/Users/georg/Desktop/fall2024/4-Computational_Biology/Assignment/executables/HEM.dpf
DOCKED: USER  
DOCKED: USER    Estimated Free Energy of Binding    =  -20.75 kcal/mol  [=(1)+(2)+(3)-(4)]
DOCKED: USER    Estimated Inhibition Constant, Ki   =  615.31 aM (attomolar)  [Temperature = 298.15 K]
DOCKED: USER    
DOCKED: USER    (1) Final Intermolecular Energy     =  -23.14 kcal/mol
DOCKED: USER        vdW + Hbond + desolv Energy     =  -18.71 kcal/mol
DOCKED: USER        Electrostatic Energy            =   -4.43 kcal/mol
DOCKED: USER    (2) Final Total Internal Energy     =   -0.43 kcal/mol
DOCKED: USER    (3) Torsional Free Energy           =   +2.39 kcal/mol
DOCKED: USER    (4) Unbound System's Energy  [=(2)] =   -0.43 kcal/mol
DOCKED: USER    
DOCKED: USER    
DOCKED: USER    NEWDPF move HEM.pdbqt
DOCKED: USER    NEWDPF about 54.495000 78.699000 10.493000
DOCKED: USER    NEWDPF tran0 54.897882 79.019676 10.811462
DOCKED: USER    NEWDPF quaternion0 -0.188780 0.970840 -0.147140 -0.013506
DOCKED: USER    NEWDPF axisangle0 -0.188797 0.970928 -0.147154 -178.452258
DOCKED: USER    NEWDPF quat0 -0.188797 0.970928 -0.147154 -178.452258
DOCKED: USER    NEWDPF dihe0 131.89 -74.05 -170.10 -99.96 1.85 5.71 128.57 178.06 
DOCKED: USER  keepresnum = 1 
DOCKED: USER  
DOCKED: REMARK  8 active torsions:
DOCKED: REMARK  status: ('A' for Active; 'I' for Inactive)
DOCKED: REMARK    1  A    between atoms: C2A_3624  and  CAA_3628 
DOCKED: REMARK    2  A    between atoms: CAA_3628  and  CBA_3629 
DOCKED: REMARK    3  A    between atoms: CBA_3629  and  CGA_3630 
DOCKED: REMARK    4  A    between atoms: C3B_3635  and  CAB_3638 
DOCKED: REMARK    5  A    between atoms: C3C_3642  and  CAC_3645 
DOCKED: REMARK    6  A    between atoms: C3D_3649  and  CAD_3652 
DOCKED: REMARK    7  A    between atoms: CAD_3652  and  CBD_3653 
DOCKED: REMARK    8  A    between atoms: CBD_3653  and  CGD_3654 
DOCKED: USER                              x       y       z     vdW  Elec       q    Type
DOCKED: USER                           _______ _______ _______ _____ _____    ______ ____
DOCKED: ROOT
DOCKED: ATOM      1  CHA HEM A1501      54.081  81.225  10.525 -0.28 +0.04    +0.038 A 
DOCKED: ATOM      2  CHB HEM A1501      54.570  77.449   7.586 -0.38 +0.03    +0.038 A 
DOCKED: ATOM      3  CHC HEM A1501      55.563  74.609  11.358 -0.40 +0.01    +0.038 A 
DOCKED: ATOM      4  CHD HEM A1501      55.138  78.405  14.296 -0.39 +0.01    +0.038 A 
DOCKED: ATOM      5  C1A HEM A1501      54.153  80.447   9.374 -0.26 +0.08    +0.079 A 
DOCKED: ATOM      6  C2A HEM A1501      53.964  80.902   7.993 -0.37 -0.01    -0.006 A 
DOCKED: ATOM      7  C3A HEM A1501      54.101  79.843   7.208 -0.36 -0.01    -0.007 A 
DOCKED: ATOM      8  C4A HEM A1501      54.384  78.731   8.063 -0.32 +0.06    +0.079 A 
DOCKED: ATOM      9  CMA HEM A1501      54.007  79.799   5.713 -0.47 +0.03    +0.032 C 
DOCKED: ATOM     10  C1B HEM A1501      54.854  76.330   8.347 -0.35 +0.04    +0.079 A 
DOCKED: ATOM     11  C2B HEM A1501      55.022  74.991   7.795 -0.47 -0.00    -0.003 A 
DOCKED: ATOM     12  C3B HEM A1501      55.286  74.194   8.863 -0.45 +0.01    +0.015 A 
DOCKED: ATOM     13  C4B HEM A1501      55.302  75.047  10.048 -0.36 +0.03    +0.083 A 
DOCKED: ATOM     14  CMB HEM A1501      54.905  74.642   6.337 -0.59 +0.02    +0.033 C 
DOCKED: ATOM     15  C1C HEM A1501      55.579  75.350  12.509 -0.34 +0.03    +0.079 A 
DOCKED: ATOM     16  C2C HEM A1501      55.936  74.856  13.811 -0.43 -0.00    -0.003 A 
DOCKED: ATOM     17  C3C HEM A1501      55.840  75.914  14.657 -0.40 +0.01    +0.015 A 
DOCKED: ATOM     18  C4C HEM A1501      55.407  77.068  13.845 -0.33 +0.03    +0.083 A 
DOCKED: ATOM     19  CMC HEM A1501      56.329  73.419  14.085 -0.56 +0.01    +0.033 C 
DOCKED: ATOM     20  C1D HEM A1501      54.747  79.534  13.536 -0.34 +0.04    +0.079 A 
DOCKED: ATOM     21  C2D HEM A1501      54.504  80.840  14.070 -0.41 -0.00    -0.007 A 
DOCKED: ATOM     22  C3D HEM A1501      54.205  81.637  13.012 -0.36 -0.00    -0.006 A 
DOCKED: ATOM     23  C4D HEM A1501      54.273  80.813  11.821 -0.24 +0.07    +0.079 A 
DOCKED: ATOM     24  CMD HEM A1501      54.569  81.239  15.490 -0.45 +0.01    +0.032 C 
DOCKED: ATOM     25  NA  HEM A1501      54.442  79.108   9.373 -0.17 -0.20    -0.246 N 
DOCKED: ATOM     26  NB  HEM A1501      55.016  76.323   9.712 -0.03 -0.12    -0.246 N 
DOCKED: ATOM     27  NC  HEM A1501      55.296  76.674  12.575 -0.16 -0.11    -0.246 N 
DOCKED: ATOM     28  ND  HEM A1501      54.608  79.544  12.176 -0.14 -0.17    -0.246 N 
DOCKED: ATOM     29 FE   HEM A1501      54.851  77.917  10.980 -0.07 +0.00    +0.000 Fe
DOCKED: ENDROOT
DOCKED: BRANCH   6  30
DOCKED: ATOM     30  CAA HEM A1501      53.677  82.283   7.517 -0.42 +0.06    +0.039 C 
DOCKED: BRANCH  30  31
DOCKED: ATOM     31  CBA HEM A1501      52.545  82.304   6.508 -0.58 +0.15    +0.102 C 
DOCKED: BRANCH  31  32
DOCKED: ATOM     32  CGA HEM A1501      52.171  83.679   6.026 -0.65 +0.35    +0.186 C 
DOCKED: ATOM     33  O1A HEM A1501      52.929  84.635   6.310 -1.22 -1.69    -0.647 OA
DOCKED: ATOM     34  O2A HEM A1501      51.147  83.802   5.323 -0.99 -1.32    -0.647 OA
DOCKED: ENDBRANCH  31  32
DOCKED: ENDBRANCH  30  31
DOCKED: ENDBRANCH   6  30
DOCKED: BRANCH  22  35
DOCKED: ATOM     35  CAD HEM A1501      53.880  83.079  13.126 -0.43 +0.04    +0.039 C 
DOCKED: BRANCH  35  36
DOCKED: ATOM     36  CBD HEM A1501      52.372  83.325  13.133 -0.50 +0.11    +0.102 C 
DOCKED: BRANCH  36  37
DOCKED: ATOM     37  CGD HEM A1501      52.012  84.798  13.060 -0.47 +0.27    +0.186 C 
DOCKED: ATOM     38  O1D HEM A1501      52.704  85.421  12.226 -0.44 -1.43    -0.647 OA
DOCKED: ATOM     39  O2D HEM A1501      51.043  85.327  13.766 -0.82 -0.92    -0.647 OA
DOCKED: ENDBRANCH  36  37
DOCKED: ENDBRANCH  35  36
DOCKED: ENDBRANCH  22  35
DOCKED: BRANCH  17  40
DOCKED: ATOM     40  CAC HEM A1501      56.095  75.950  16.102 -0.57 +0.00    +0.001 C 
DOCKED: ATOM     41  CBC HEM A1501      55.182  76.077  17.076 -0.65 +0.00    +0.000 C 
DOCKED: ENDBRANCH  17  40
DOCKED: BRANCH  12  42
DOCKED: ATOM     42  CAB HEM A1501      55.536  72.737   8.953 -0.53 +0.00    +0.001 C 
DOCKED: ATOM     43  CBB HEM A1501      54.722  71.748   9.262 -0.57 +0.00    +0.000 C 
DOCKED: ENDBRANCH  12  42
DOCKED: TORSDOF 8
DOCKED: TER
DOCKED: ENDMDL
________________________________________________________________________________


	BEGINNING GENETIC ALGORITHM DOCKING 82 of 100
Run: 82 Seed: 797920618 964873341 [ Run 82 of 100 GA/GALS ]
Beginning LAMARCKIAN GENETIC ALGORITHM (LGA), with a maximum of 2500000 energy evaluations.

Final-Value: -23.252


	FINAL GENETIC ALGORITHM DOCKED STATE
	_______________________________________________


Detailed state:  trans 54.910 78.748 10.567 quatxyzw -0.166359 0.971063 -0.171089 -0.009528 center 54.495 78.699 10.493 ntor 8 -180.0000 175.0676 155.2992 -120.4273 8.0432 -24.2203 158.6615 178.5022
State:	 54.910  78.748  10.567  -0.166  0.971 -0.171 -178.908   -180.00  175.07  155.30 -120.43    8.04  -24.22  158.66  178.50

DOCKED: MODEL       82
DOCKED: USER    Run = 82
DOCKED: USER    DPF = C:/Users/georg/Desktop/fall2024/4-Computational_Biology/Assignment/executables/HEM.dpf
DOCKED: USER  
DOCKED: USER    Estimated Free Energy of Binding    =  -20.33 kcal/mol  [=(1)+(2)+(3)-(4)]
DOCKED: USER    Estimated Inhibition Constant, Ki   =    1.25 fM (femtomolar)  [Temperature = 298.15 K]
DOCKED: USER    
DOCKED: USER    (1) Final Intermolecular Energy     =  -22.72 kcal/mol
DOCKED: USER        vdW + Hbond + desolv Energy     =  -18.71 kcal/mol
DOCKED: USER        Electrostatic Energy            =   -4.00 kcal/mol
DOCKED: USER    (2) Final Total Internal Energy     =   -0.54 kcal/mol
DOCKED: USER    (3) Torsional Free Energy           =   +2.39 kcal/mol
DOCKED: USER    (4) Unbound System's Energy  [=(2)] =   -0.54 kcal/mol
DOCKED: USER    
DOCKED: USER    
DOCKED: USER    NEWDPF move HEM.pdbqt
DOCKED: USER    NEWDPF about 54.495000 78.699000 10.493000
DOCKED: USER    NEWDPF tran0 54.909846 78.747720 10.566945
DOCKED: USER    NEWDPF quaternion0 -0.166359 0.971063 -0.171089 -0.009528
DOCKED: USER    NEWDPF axisangle0 -0.166367 0.971107 -0.171096 -178.908149
DOCKED: USER    NEWDPF quat0 -0.166367 0.971107 -0.171096 -178.908149
DOCKED: USER    NEWDPF dihe0 -180.00 175.07 155.30 -120.43 8.04 -24.22 158.66 178.50 
DOCKED: USER  keepresnum = 1 
DOCKED: USER  
DOCKED: REMARK  8 active torsions:
DOCKED: REMARK  status: ('A' for Active; 'I' for Inactive)
DOCKED: REMARK    1  A    between atoms: C2A_3624  and  CAA_3628 
DOCKED: REMARK    2  A    between atoms: CAA_3628  and  CBA_3629 
DOCKED: REMARK    3  A    between atoms: CBA_3629  and  CGA_3630 
DOCKED: REMARK    4  A    between atoms: C3B_3635  and  CAB_3638 
DOCKED: REMARK    5  A    between atoms: C3C_3642  and  CAC_3645 
DOCKED: REMARK    6  A    between atoms: C3D_3649  and  CAD_3652 
DOCKED: REMARK    7  A    between atoms: CAD_3652  and  CBD_3653 
DOCKED: REMARK    8  A    between atoms: CBD_3653  and  CGD_3654 
DOCKED: USER                              x       y       z     vdW  Elec       q    Type
DOCKED: USER                           _______ _______ _______ _____ _____    ______ ____
DOCKED: ROOT
DOCKED: ATOM      1  CHA HEM A1501      54.196  80.972  10.170 -0.27 +0.04    +0.038 A 
DOCKED: ATOM      2  CHB HEM A1501      54.533  77.042   7.416 -0.40 +0.03    +0.038 A 
DOCKED: ATOM      3  CHC HEM A1501      55.369  74.343  11.327 -0.40 +0.01    +0.038 A 
DOCKED: ATOM      4  CHD HEM A1501      55.098  78.289  14.078 -0.39 +0.02    +0.038 A 
DOCKED: ATOM      5  C1A HEM A1501      54.241  80.138   9.057 -0.26 +0.08    +0.079 A 
DOCKED: ATOM      6  C2A HEM A1501      54.082  80.534   7.654 -0.36 -0.01    -0.006 A 
DOCKED: ATOM      7  C3A HEM A1501      54.176  79.434   6.922 -0.37 -0.01    -0.007 A 
DOCKED: ATOM      8  C4A HEM A1501      54.402  78.353   7.831 -0.34 +0.06    +0.079 A 
DOCKED: ATOM      9  CMA HEM A1501      54.090  79.324   5.430 -0.48 +0.03    +0.032 C 
DOCKED: ATOM     10  C1B HEM A1501      54.760  75.949   8.232 -0.37 +0.04    +0.079 A 
DOCKED: ATOM     11  C2B HEM A1501      54.871  74.579   7.745 -0.48 -0.00    -0.003 A 
DOCKED: ATOM     12  C3B HEM A1501      55.090  73.822   8.852 -0.46 +0.01    +0.015 A 
DOCKED: ATOM     13  C4B HEM A1501      55.138  74.729   9.995 -0.38 +0.03    +0.083 A 
DOCKED: ATOM     14  CMB HEM A1501      54.748  74.166   6.304 -0.58 +0.02    +0.033 C 
DOCKED: ATOM     15  C1C HEM A1501      55.412  75.136  12.442 -0.35 +0.03    +0.079 A 
DOCKED: ATOM     16  C2C HEM A1501      55.736  74.689  13.768 -0.42 -0.00    -0.003 A 
DOCKED: ATOM     17  C3C HEM A1501      55.683  75.788  14.563 -0.38 +0.01    +0.015 A 
DOCKED: ATOM     18  C4C HEM A1501      55.309  76.921  13.694 -0.32 +0.03    +0.083 A 
DOCKED: ATOM     19  CMC HEM A1501      56.061  73.250  14.114 -0.56 +0.01    +0.033 C 
DOCKED: ATOM     20  C1D HEM A1501      54.764  79.397  13.262 -0.32 +0.05    +0.079 A 
DOCKED: ATOM     21  C2D HEM A1501      54.577  80.737  13.732 -0.39 -0.00    -0.007 A 
DOCKED: ATOM     22  C3D HEM A1501      54.322  81.496  12.636 -0.33 -0.00    -0.006 A 
DOCKED: ATOM     23  C4D HEM A1501      54.361  80.614  11.485 -0.21 +0.07    +0.079 A 
DOCKED: ATOM     24  CMD HEM A1501      54.651  81.200  15.133 -0.47 +0.01    +0.032 C 
DOCKED: ATOM     25  NA  HEM A1501      54.469  78.788   9.121 -0.18 -0.19    -0.246 N 
DOCKED: ATOM     26  NB  HEM A1501      54.913  75.999   9.597 -0.12 -0.12    -0.246 N 
DOCKED: ATOM     27  NC  HEM A1501      55.189  76.473  12.443 -0.14 -0.10    -0.246 N 
DOCKED: ATOM     28  ND  HEM A1501      54.635  79.349  11.903 -0.09 -0.17    -0.246 N 
DOCKED: ATOM     29 FE   HEM A1501      54.811  77.658  10.787 -0.07 +0.00    +0.000 Fe
DOCKED: ENDROOT
DOCKED: BRANCH   6  30
DOCKED: ATOM     30  CAA HEM A1501      53.861  81.903   7.112 -0.44 +0.05    +0.039 C 
DOCKED: BRANCH  30  31
DOCKED: ATOM     31  CBA HEM A1501      52.414  82.123   6.718 -0.57 +0.15    +0.102 C 
DOCKED: BRANCH  31  32
DOCKED: ATOM     32  CGA HEM A1501      52.143  83.454   6.073 -0.63 +0.34    +0.186 C 
DOCKED: ATOM     33  O1A HEM A1501      52.932  84.399   6.305 -1.20 -1.56    -0.647 OA
DOCKED: ATOM     34  O2A HEM A1501      51.170  83.550   5.297 -1.11 -1.27    -0.647 OA
DOCKED: ENDBRANCH  31  32
DOCKED: ENDBRANCH  30  31
DOCKED: ENDBRANCH   6  30
DOCKED: BRANCH  22  35
DOCKED: ATOM     35  CAD HEM A1501      54.062  82.954  12.679 -0.40 +0.04    +0.039 C 
DOCKED: BRANCH  35  36
DOCKED: ATOM     36  CBD HEM A1501      52.566  83.268  12.671 -0.50 +0.12    +0.102 C 
DOCKED: BRANCH  36  37
DOCKED: ATOM     37  CGD HEM A1501      52.246  84.639  13.238 -0.50 +0.25    +0.186 C 
DOCKED: ATOM     38  O1D HEM A1501      53.220  85.421  13.184 -0.60 -1.23    -0.647 OA
DOCKED: ATOM     39  O2D HEM A1501      51.057  84.962  13.683 -0.54 -0.85    -0.647 OA
DOCKED: ENDBRANCH  36  37
DOCKED: ENDBRANCH  35  36
DOCKED: ENDBRANCH  22  35
DOCKED: BRANCH  17  40
DOCKED: ATOM     40  CAC HEM A1501      55.930  75.881  16.007 -0.56 +0.00    +0.001 C 
DOCKED: ATOM     41  CBC HEM A1501      55.253  75.253  16.980 -0.63 +0.00    +0.000 C 
DOCKED: ENDBRANCH  17  40
DOCKED: BRANCH  12  42
DOCKED: ATOM     42  CAB HEM A1501      55.274  72.361   9.013 -0.56 +0.00    +0.001 C 
DOCKED: ATOM     43  CBB HEM A1501      55.949  71.679   9.916 -0.58 +0.00    +0.000 C 
DOCKED: ENDBRANCH  12  42
DOCKED: TORSDOF 8
DOCKED: TER
DOCKED: ENDMDL
________________________________________________________________________________


	BEGINNING GENETIC ALGORITHM DOCKING 83 of 100
Run: 83 Seed: 1964762628 1478089079 [ Run 83 of 100 GA/GALS ]
Beginning LAMARCKIAN GENETIC ALGORITHM (LGA), with a maximum of 2500000 energy evaluations.

Final-Value: -23.719


	FINAL GENETIC ALGORITHM DOCKED STATE
	_______________________________________________


Detailed state:  trans 54.916 79.108 10.774 quatxyzw 0.186162 -0.969519 0.158404 0.016903 center 54.495 78.699 10.493 ntor 8 163.7130 -63.7534 -177.5706 -130.0891 1.4408 17.2230 138.1086 -156.3927
State:	 54.916  79.108  10.774   0.186 -0.970  0.158 178.063    163.71  -63.75 -177.57 -130.09    1.44   17.22  138.11 -156.39

DOCKED: MODEL       83
DOCKED: USER    Run = 83
DOCKED: USER    DPF = C:/Users/georg/Desktop/fall2024/4-Computational_Biology/Assignment/executables/HEM.dpf
DOCKED: USER  
DOCKED: USER    Estimated Free Energy of Binding    =  -20.86 kcal/mol  [=(1)+(2)+(3)-(4)]
DOCKED: USER    Estimated Inhibition Constant, Ki   =  512.20 aM (attomolar)  [Temperature = 298.15 K]
DOCKED: USER    
DOCKED: USER    (1) Final Intermolecular Energy     =  -23.25 kcal/mol
DOCKED: USER        vdW + Hbond + desolv Energy     =  -18.84 kcal/mol
DOCKED: USER        Electrostatic Energy            =   -4.41 kcal/mol
DOCKED: USER    (2) Final Total Internal Energy     =   -0.47 kcal/mol
DOCKED: USER    (3) Torsional Free Energy           =   +2.39 kcal/mol
DOCKED: USER    (4) Unbound System's Energy  [=(2)] =   -0.47 kcal/mol
DOCKED: USER    
DOCKED: USER    
DOCKED: USER    NEWDPF move HEM.pdbqt
DOCKED: USER    NEWDPF about 54.495000 78.699000 10.493000
DOCKED: USER    NEWDPF tran0 54.915518 79.108002 10.773705
DOCKED: USER    NEWDPF quaternion0 0.186162 -0.969519 0.158404 0.016903
DOCKED: USER    NEWDPF axisangle0 0.186188 -0.969657 0.158426 178.062972
DOCKED: USER    NEWDPF quat0 0.186188 -0.969657 0.158426 178.062972
DOCKED: USER    NEWDPF dihe0 163.71 -63.75 -177.57 -130.09 1.44 17.22 138.11 -156.39 
DOCKED: USER  keepresnum = 1 
DOCKED: USER  
DOCKED: REMARK  8 active torsions:
DOCKED: REMARK  status: ('A' for Active; 'I' for Inactive)
DOCKED: REMARK    1  A    between atoms: C2A_3624  and  CAA_3628 
DOCKED: REMARK    2  A    between atoms: CAA_3628  and  CBA_3629 
DOCKED: REMARK    3  A    between atoms: CBA_3629  and  CGA_3630 
DOCKED: REMARK    4  A    between atoms: C3B_3635  and  CAB_3638 
DOCKED: REMARK    5  A    between atoms: C3C_3642  and  CAC_3645 
DOCKED: REMARK    6  A    between atoms: C3D_3649  and  CAD_3652 
DOCKED: REMARK    7  A    between atoms: CAD_3652  and  CBD_3653 
DOCKED: REMARK    8  A    between atoms: CBD_3653  and  CGD_3654 
DOCKED: USER                              x       y       z     vdW  Elec       q    Type
DOCKED: USER                           _______ _______ _______ _____ _____    ______ ____
DOCKED: ROOT
DOCKED: ATOM      1  CHA HEM A1501      54.111  81.310  10.432 -0.29 +0.04    +0.038 A 
DOCKED: ATOM      2  CHB HEM A1501      54.619  77.471   7.578 -0.37 +0.03    +0.038 A 
DOCKED: ATOM      3  CHC HEM A1501      55.556  74.708  11.420 -0.40 +0.01    +0.038 A 
DOCKED: ATOM      4  CHD HEM A1501      55.113  78.565  14.273 -0.39 +0.02    +0.038 A 
DOCKED: ATOM      5  C1A HEM A1501      54.194  80.508   9.298 -0.26 +0.08    +0.079 A 
DOCKED: ATOM      6  C2A HEM A1501      54.022  80.934   7.906 -0.36 -0.01    -0.006 A 
DOCKED: ATOM      7  C3A HEM A1501      54.164  79.859   7.145 -0.36 -0.01    -0.007 A 
DOCKED: ATOM      8  C4A HEM A1501      54.433  78.764   8.026 -0.32 +0.06    +0.079 A 
DOCKED: ATOM      9  CMA HEM A1501      54.087  79.784   5.650 -0.48 +0.03    +0.032 C 
DOCKED: ATOM     10  C1B HEM A1501      54.890  76.367   8.366 -0.34 +0.04    +0.079 A 
DOCKED: ATOM     11  C2B HEM A1501      55.059  75.017   7.844 -0.46 -0.00    -0.003 A 
DOCKED: ATOM     12  C3B HEM A1501      55.307  74.241   8.931 -0.45 +0.01    +0.015 A 
DOCKED: ATOM     13  C4B HEM A1501      55.313  75.119  10.098 -0.35 +0.03    +0.083 A 
DOCKED: ATOM     14  CMB HEM A1501      54.957  74.637   6.392 -0.59 +0.02    +0.033 C 
DOCKED: ATOM     15  C1C HEM A1501      55.562  75.472  12.555 -0.34 +0.03    +0.079 A 
DOCKED: ATOM     16  C2C HEM A1501      55.902  75.004  13.871 -0.42 -0.00    -0.003 A 
DOCKED: ATOM     17  C3C HEM A1501      55.800  76.080  14.694 -0.40 +0.01    +0.015 A 
DOCKED: ATOM     18  C4C HEM A1501      55.382  77.218  13.853 -0.33 +0.03    +0.083 A 
DOCKED: ATOM     19  CMC HEM A1501      56.286  73.571  14.180 -0.56 +0.01    +0.033 C 
DOCKED: ATOM     20  C1D HEM A1501      54.735  79.680  13.485 -0.34 +0.04    +0.079 A 
DOCKED: ATOM     21  C2D HEM A1501      54.491  80.997  13.988 -0.41 -0.00    -0.007 A 
DOCKED: ATOM     22  C3D HEM A1501      54.208  81.774  12.911 -0.36 -0.00    -0.006 A 
DOCKED: ATOM     23  C4D HEM A1501      54.286  80.925  11.738 -0.25 +0.07    +0.079 A 
DOCKED: ATOM     24  CMD HEM A1501      54.541  81.426  15.401 -0.48 +0.01    +0.032 C 
DOCKED: ATOM     25  NA  HEM A1501      54.477  79.168   9.328 -0.18 -0.20    -0.246 N 
DOCKED: ATOM     26  NB  HEM A1501      55.036  76.388   9.732 -0.01 -0.12    -0.246 N 
DOCKED: ATOM     27  NC  HEM A1501      55.284  76.799  12.591 -0.15 -0.11    -0.246 N 
DOCKED: ATOM     28  ND  HEM A1501      54.612  79.662  12.124 -0.14 -0.17    -0.246 N 
DOCKED: ATOM     29 FE   HEM A1501      54.862  78.010  10.965 -0.07 +0.00    +0.000 Fe
DOCKED: ENDROOT
DOCKED: BRANCH   6  30
DOCKED: ATOM     30  CAA HEM A1501      53.746  82.306   7.398 -0.44 +0.06    +0.039 C 
DOCKED: BRANCH  30  31
DOCKED: ATOM     31  CBA HEM A1501      52.484  82.350   6.558 -0.58 +0.15    +0.102 C 
DOCKED: BRANCH  31  32
DOCKED: ATOM     32  CGA HEM A1501      52.116  83.722   6.064 -0.64 +0.35    +0.186 C 
DOCKED: ATOM     33  O1A HEM A1501      52.891  84.672   6.317 -1.20 -1.70    -0.647 OA
DOCKED: ATOM     34  O2A HEM A1501      51.077  83.848   5.383 -0.97 -1.34    -0.647 OA
DOCKED: ENDBRANCH  31  32
DOCKED: ENDBRANCH  30  31
DOCKED: ENDBRANCH   6  30
DOCKED: BRANCH  22  35
DOCKED: ATOM     35  CAD HEM A1501      53.887  83.218  12.991 -0.44 +0.04    +0.039 C 
DOCKED: BRANCH  35  36
DOCKED: ATOM     36  CBD HEM A1501      52.502  83.464  13.589 -0.49 +0.10    +0.102 C 
DOCKED: BRANCH  36  37
DOCKED: ATOM     37  CGD HEM A1501      51.954  84.842  13.269 -0.50 +0.26    +0.186 C 
DOCKED: ATOM     38  O1D HEM A1501      52.603  85.421  12.370 -0.50 -1.39    -0.647 OA
DOCKED: ATOM     39  O2D HEM A1501      50.885  85.332  13.846 -0.92 -0.90    -0.647 OA
DOCKED: ENDBRANCH  36  37
DOCKED: ENDBRANCH  35  36
DOCKED: ENDBRANCH  22  35
DOCKED: BRANCH  17  40
DOCKED: ATOM     40  CAC HEM A1501      56.039  76.145  16.141 -0.57 +0.00    +0.001 C 
DOCKED: ATOM     41  CBC HEM A1501      55.217  75.716  17.111 -0.66 +0.00    +0.000 C 
DOCKED: ENDBRANCH  17  40
DOCKED: BRANCH  12  42
DOCKED: ATOM     42  CAB HEM A1501      55.550  72.785   9.055 -0.53 +0.00    +0.001 C 
DOCKED: ATOM     43  CBB HEM A1501      54.702  71.786   9.198 -0.57 +0.00    +0.000 C 
DOCKED: ENDBRANCH  12  42
DOCKED: TORSDOF 8
DOCKED: TER
DOCKED: ENDMDL
________________________________________________________________________________


	BEGINNING GENETIC ALGORITHM DOCKING 84 of 100
Run: 84 Seed: 1263811108 1843857760 [ Run 84 of 100 GA/GALS ]
Beginning LAMARCKIAN GENETIC ALGORITHM (LGA), with a maximum of 2500000 energy evaluations.

Final-Value: -23.512


	FINAL GENETIC ALGORITHM DOCKED STATE
	_______________________________________________


Detailed state:  trans 54.856 79.121 10.714 quatxyzw 0.194872 -0.961599 0.188858 0.041048 center 54.495 78.699 10.493 ntor 8 179.8185 -46.9802 154.3225 -157.5183 7.2585 -23.4903 161.1837 -156.3880
State:	 54.856  79.121  10.714   0.195 -0.962  0.189 175.295    179.82  -46.98  154.32 -157.52    7.26  -23.49  161.18 -156.39

DOCKED: MODEL       84
DOCKED: USER    Run = 84
DOCKED: USER    DPF = C:/Users/georg/Desktop/fall2024/4-Computational_Biology/Assignment/executables/HEM.dpf
DOCKED: USER  
DOCKED: USER    Estimated Free Energy of Binding    =  -20.53 kcal/mol  [=(1)+(2)+(3)-(4)]
DOCKED: USER    Estimated Inhibition Constant, Ki   =  887.16 aM (attomolar)  [Temperature = 298.15 K]
DOCKED: USER    
DOCKED: USER    (1) Final Intermolecular Energy     =  -22.92 kcal/mol
DOCKED: USER        vdW + Hbond + desolv Energy     =  -18.98 kcal/mol
DOCKED: USER        Electrostatic Energy            =   -3.94 kcal/mol
DOCKED: USER    (2) Final Total Internal Energy     =   -0.59 kcal/mol
DOCKED: USER    (3) Torsional Free Energy           =   +2.39 kcal/mol
DOCKED: USER    (4) Unbound System's Energy  [=(2)] =   -0.59 kcal/mol
DOCKED: USER    
DOCKED: USER    
DOCKED: USER    NEWDPF move HEM.pdbqt
DOCKED: USER    NEWDPF about 54.495000 78.699000 10.493000
DOCKED: USER    NEWDPF tran0 54.856181 79.121373 10.714045
DOCKED: USER    NEWDPF quaternion0 0.194872 -0.961599 0.188858 0.041048
DOCKED: USER    NEWDPF axisangle0 0.195037 -0.962410 0.189018 175.294964
DOCKED: USER    NEWDPF quat0 0.195037 -0.962410 0.189018 175.294964
DOCKED: USER    NEWDPF dihe0 179.82 -46.98 154.32 -157.52 7.26 -23.49 161.18 -156.39 
DOCKED: USER  keepresnum = 1 
DOCKED: USER  
DOCKED: REMARK  8 active torsions:
DOCKED: REMARK  status: ('A' for Active; 'I' for Inactive)
DOCKED: REMARK    1  A    between atoms: C2A_3624  and  CAA_3628 
DOCKED: REMARK    2  A    between atoms: CAA_3628  and  CBA_3629 
DOCKED: REMARK    3  A    between atoms: CBA_3629  and  CGA_3630 
DOCKED: REMARK    4  A    between atoms: C3B_3635  and  CAB_3638 
DOCKED: REMARK    5  A    between atoms: C3C_3642  and  CAC_3645 
DOCKED: REMARK    6  A    between atoms: C3D_3649  and  CAD_3652 
DOCKED: REMARK    7  A    between atoms: CAD_3652  and  CBD_3653 
DOCKED: REMARK    8  A    between atoms: CBD_3653  and  CGD_3654 
DOCKED: USER                              x       y       z     vdW  Elec       q    Type
DOCKED: USER                           _______ _______ _______ _____ _____    ______ ____
DOCKED: ROOT
DOCKED: ATOM      1  CHA HEM A1501      54.017  81.279  10.211 -0.29 +0.04    +0.038 A 
DOCKED: ATOM      2  CHB HEM A1501      54.781  77.313   7.599 -0.35 +0.03    +0.038 A 
DOCKED: ATOM      3  CHC HEM A1501      55.569  74.780  11.629 -0.40 +0.01    +0.038 A 
DOCKED: ATOM      4  CHD HEM A1501      54.870  78.767  14.243 -0.40 +0.02    +0.038 A 
DOCKED: ATOM      5  C1A HEM A1501      54.184  80.422   9.128 -0.27 +0.08    +0.079 A 
DOCKED: ATOM      6  C2A HEM A1501      54.080  80.770   7.708 -0.35 -0.01    -0.006 A 
DOCKED: ATOM      7  C3A HEM A1501      54.292  79.661   7.014 -0.36 -0.01    -0.007 A 
DOCKED: ATOM      8  C4A HEM A1501      54.538  78.622   7.967 -0.31 +0.06    +0.079 A 
DOCKED: ATOM      9  CMA HEM A1501      54.301  79.506   5.524 -0.48 +0.03    +0.032 C 
DOCKED: ATOM     10  C1B HEM A1501      55.034  76.259   8.458 -0.32 +0.04    +0.079 A 
DOCKED: ATOM     11  C2B HEM A1501      55.266  74.889   8.020 -0.46 -0.00    -0.003 A 
DOCKED: ATOM     12  C3B HEM A1501      55.472  74.178   9.159 -0.44 +0.01    +0.015 A 
DOCKED: ATOM     13  C4B HEM A1501      55.390  75.115  10.276 -0.35 +0.03    +0.083 A 
DOCKED: ATOM     14  CMB HEM A1501      55.256  74.431   6.587 -0.57 +0.02    +0.033 C 
DOCKED: ATOM     15  C1C HEM A1501      55.492  75.603  12.721 -0.33 +0.03    +0.079 A 
DOCKED: ATOM     16  C2C HEM A1501      55.769  75.214  14.076 -0.40 -0.00    -0.003 A 
DOCKED: ATOM     17  C3C HEM A1501      55.594  76.327  14.834 -0.41 +0.01    +0.015 A 
DOCKED: ATOM     18  C4C HEM A1501      55.196  77.408  13.911 -0.34 +0.03    +0.083 A 
DOCKED: ATOM     19  CMC HEM A1501      56.170  73.810  14.482 -0.55 +0.01    +0.033 C 
DOCKED: ATOM     20  C1D HEM A1501      54.509  79.829  13.376 -0.35 +0.05    +0.079 A 
DOCKED: ATOM     21  C2D HEM A1501      54.204  81.163  13.795 -0.42 -0.00    -0.007 A 
DOCKED: ATOM     22  C3D HEM A1501      53.963  81.874  12.664 -0.38 -0.01    -0.006 A 
DOCKED: ATOM     23  C4D HEM A1501      54.128  80.968  11.544 -0.24 +0.07    +0.079 A 
DOCKED: ATOM     24  CMD HEM A1501      54.164  81.666  15.183 -0.42 +0.02    +0.032 C 
DOCKED: ATOM     25  NA  HEM A1501      54.498  79.094   9.245 -0.18 -0.20    -0.246 N 
DOCKED: ATOM     26  NB  HEM A1501      55.103  76.356   9.828 -0.03 -0.12    -0.246 N 
DOCKED: ATOM     27  NC  HEM A1501      55.179  76.921  12.669 -0.15 -0.11    -0.246 N 
DOCKED: ATOM     28  ND  HEM A1501      54.463  79.736  12.014 -0.14 -0.18    -0.246 N 
DOCKED: ATOM     29 FE   HEM A1501      54.820  78.033  10.961 -0.07 +0.00    +0.000 Fe
DOCKED: ENDROOT
DOCKED: BRANCH   6  30
DOCKED: ATOM     30  CAA HEM A1501      53.799  82.105   7.113 -0.46 +0.05    +0.039 C 
DOCKED: BRANCH  30  31
DOCKED: ATOM     31  CBA HEM A1501      52.349  82.236   6.688 -0.58 +0.15    +0.102 C 
DOCKED: BRANCH  31  32
DOCKED: ATOM     32  CGA HEM A1501      52.018  83.535   6.007 -0.63 +0.34    +0.186 C 
DOCKED: ATOM     33  O1A HEM A1501      52.737  84.532   6.247 -1.10 -1.58    -0.647 OA
DOCKED: ATOM     34  O2A HEM A1501      51.068  83.555   5.197 -1.15 -1.28    -0.647 OA
DOCKED: ENDBRANCH  31  32
DOCKED: ENDBRANCH  30  31
DOCKED: ENDBRANCH   6  30
DOCKED: BRANCH  22  35
DOCKED: ATOM     35  CAD HEM A1501      53.602  83.311  12.648 -0.47 +0.05    +0.039 C 
DOCKED: BRANCH  35  36
DOCKED: ATOM     36  CBD HEM A1501      52.180  83.549  13.156 -0.51 +0.11    +0.102 C 
DOCKED: BRANCH  36  37
DOCKED: ATOM     37  CGD HEM A1501      51.954  84.969  13.640 -0.50 +0.26    +0.186 C 
DOCKED: ATOM     38  O1D HEM A1501      53.022  85.598  13.804 -0.47 -1.07    -0.647 OA
DOCKED: ATOM     39  O2D HEM A1501      50.758  85.477  13.813 -1.06 -0.92    -0.647 OA
DOCKED: ENDBRANCH  36  37
DOCKED: ENDBRANCH  35  36
DOCKED: ENDBRANCH  22  35
DOCKED: BRANCH  17  40
DOCKED: ATOM     40  CAC HEM A1501      55.749  76.474  16.286 -0.58 +0.00    +0.001 C 
DOCKED: ATOM     41  CBC HEM A1501      55.058  75.828  17.237 -0.66 +0.00    +0.000 C 
DOCKED: ENDBRANCH  17  40
DOCKED: BRANCH  12  42
DOCKED: ATOM     42  CAB HEM A1501      55.744  72.738   9.374 -0.46 +0.00    +0.001 C 
DOCKED: ATOM     43  CBB HEM A1501      54.957  71.690   9.235 -0.58 +0.00    +0.000 C 
DOCKED: ENDBRANCH  12  42
DOCKED: TORSDOF 8
DOCKED: TER
DOCKED: ENDMDL
________________________________________________________________________________


	BEGINNING GENETIC ALGORITHM DOCKING 85 of 100
Run: 85 Seed: 920988876 1589226574 [ Run 85 of 100 GA/GALS ]
Beginning LAMARCKIAN GENETIC ALGORITHM (LGA), with a maximum of 2500000 energy evaluations.

Final-Value: -23.631


	FINAL GENETIC ALGORITHM DOCKED STATE
	_______________________________________________


Detailed state:  trans 54.343 78.891 10.655 quatxyzw -0.010348 0.018155 -0.013322 0.999693 center 54.495 78.699 10.493 ntor 8 7.0704 -28.2868 -162.1858 178.0031 22.0127 17.1967 11.2652 5.3028
State:	 54.343  78.891  10.655  -0.418  0.733 -0.538  2.840      7.07  -28.29 -162.19  178.00   22.01   17.20   11.27    5.30

DOCKED: MODEL       85
DOCKED: USER    Run = 85
DOCKED: USER    DPF = C:/Users/georg/Desktop/fall2024/4-Computational_Biology/Assignment/executables/HEM.dpf
DOCKED: USER  
DOCKED: USER    Estimated Free Energy of Binding    =  -20.69 kcal/mol  [=(1)+(2)+(3)-(4)]
DOCKED: USER    Estimated Inhibition Constant, Ki   =  682.25 aM (attomolar)  [Temperature = 298.15 K]
DOCKED: USER    
DOCKED: USER    (1) Final Intermolecular Energy     =  -23.08 kcal/mol
DOCKED: USER        vdW + Hbond + desolv Energy     =  -18.72 kcal/mol
DOCKED: USER        Electrostatic Energy            =   -4.36 kcal/mol
DOCKED: USER    (2) Final Total Internal Energy     =   -0.55 kcal/mol
DOCKED: USER    (3) Torsional Free Energy           =   +2.39 kcal/mol
DOCKED: USER    (4) Unbound System's Energy  [=(2)] =   -0.55 kcal/mol
DOCKED: USER    
DOCKED: USER    
DOCKED: USER    NEWDPF move HEM.pdbqt
DOCKED: USER    NEWDPF about 54.495000 78.699000 10.493000
DOCKED: USER    NEWDPF tran0 54.342901 78.891023 10.655010
DOCKED: USER    NEWDPF quaternion0 -0.010348 0.018155 -0.013322 0.999693
DOCKED: USER    NEWDPF axisangle0 -0.417551 0.732586 -0.537558 2.840096
DOCKED: USER    NEWDPF quat0 -0.417551 0.732586 -0.537558 2.840096
DOCKED: USER    NEWDPF dihe0 7.07 -28.29 -162.19 178.00 22.01 17.20 11.27 5.30 
DOCKED: USER  keepresnum = 1 
DOCKED: USER  
DOCKED: REMARK  8 active torsions:
DOCKED: REMARK  status: ('A' for Active; 'I' for Inactive)
DOCKED: REMARK    1  A    between atoms: C2A_3624  and  CAA_3628 
DOCKED: REMARK    2  A    between atoms: CAA_3628  and  CBA_3629 
DOCKED: REMARK    3  A    between atoms: CBA_3629  and  CGA_3630 
DOCKED: REMARK    4  A    between atoms: C3B_3635  and  CAB_3638 
DOCKED: REMARK    5  A    between atoms: C3C_3642  and  CAC_3645 
DOCKED: REMARK    6  A    between atoms: C3D_3649  and  CAD_3652 
DOCKED: REMARK    7  A    between atoms: CAD_3652  and  CBD_3653 
DOCKED: REMARK    8  A    between atoms: CBD_3653  and  CGD_3654 
DOCKED: USER                              x       y       z     vdW  Elec       q    Type
DOCKED: USER                           _______ _______ _______ _____ _____    ______ ____
DOCKED: ROOT
DOCKED: ATOM      1  CHA HEM A1501      54.228  81.229  10.288 -0.28 +0.04    +0.038 A 
DOCKED: ATOM      2  CHB HEM A1501      55.017  78.504  14.173 -0.40 +0.02    +0.038 A 
DOCKED: ATOM      3  CHC HEM A1501      55.463  74.599  11.374 -0.40 +0.01    +0.038 A 
DOCKED: ATOM      4  CHD HEM A1501      54.607  77.316   7.488 -0.38 +0.03    +0.038 A 
DOCKED: ATOM      5  C1A HEM A1501      54.377  80.826  11.611 -0.23 +0.07    +0.079 A 
DOCKED: ATOM      6  C2A HEM A1501      54.278  81.672  12.804 -0.35 -0.00    -0.006 A 
DOCKED: ATOM      7  C3A HEM A1501      54.502  80.898  13.856 -0.40 -0.00    -0.007 A 
DOCKED: ATOM      8  C4A HEM A1501      54.730  79.577  13.353 -0.33 +0.05    +0.079 A 
DOCKED: ATOM      9  CMA HEM A1501      54.499  81.299  15.300 -0.49 +0.01    +0.032 C 
DOCKED: ATOM     10  C1B HEM A1501      55.240  77.202  13.762 -0.33 +0.03    +0.079 A 
DOCKED: ATOM     11  C2B HEM A1501      55.559  76.106  14.668 -0.40 -0.00    -0.003 A 
DOCKED: ATOM     12  C3B HEM A1501      55.699  75.013  13.874 -0.39 +0.01    +0.015 A 
DOCKED: ATOM     13  C4B HEM A1501      55.441  75.439  12.501 -0.33 +0.03    +0.083 A 
DOCKED: ATOM     14  CMB HEM A1501      55.697  76.237  16.160 -0.55 +0.01    +0.033 C 
DOCKED: ATOM     15  C1C HEM A1501      55.246  74.935  10.065 -0.37 +0.03    +0.079 A 
DOCKED: ATOM     16  C2C HEM A1501      55.201  74.011   8.966 -0.47 -0.00    -0.003 A 
DOCKED: ATOM     17  C3C HEM A1501      54.944  74.751   7.858 -0.46 +0.01    +0.015 A 
DOCKED: ATOM     18  C4C HEM A1501      54.840  76.155   8.301 -0.36 +0.05    +0.083 A 
DOCKED: ATOM     19  CMC HEM A1501      55.411  72.517   9.115 -0.53 +0.01    +0.033 C 
DOCKED: ATOM     20  C1D HEM A1501      54.479  78.668   7.891 -0.32 +0.06    +0.079 A 
DOCKED: ATOM     21  C2D HEM A1501      54.240  79.769   7.008 -0.36 -0.01    -0.007 A 
DOCKED: ATOM     22  C3D HEM A1501      54.133  80.873   7.791 -0.35 -0.01    -0.006 A 
DOCKED: ATOM     23  C4D HEM A1501      54.302  80.442   9.165 -0.26 +0.08    +0.079 A 
DOCKED: ATOM     24  CMD HEM A1501      54.128  79.713   5.536 -0.49 +0.03    +0.032 C 
DOCKED: ATOM     25  NA  HEM A1501      54.625  79.534  11.994 -0.12 -0.17    -0.246 N 
DOCKED: ATOM     26  NB  HEM A1501      55.191  76.765  12.460 -0.12 -0.11    -0.246 N 
DOCKED: ATOM     27  NC  HEM A1501      55.003  76.194   9.625 -0.09 -0.12    -0.246 N 
DOCKED: ATOM     28  ND  HEM A1501      54.506  79.098   9.188 -0.18 -0.20    -0.246 N 
DOCKED: ATOM     29 FE   HEM A1501      54.821  77.893  10.795 -0.07 +0.00    +0.000 Fe
DOCKED: ENDROOT
DOCKED: BRANCH   6  30
DOCKED: ATOM     30  CAA HEM A1501      53.978  83.129  12.869 -0.42 +0.04    +0.039 C 
DOCKED: BRANCH  30  31
DOCKED: ATOM     31  CBA HEM A1501      52.603  83.393  13.450 -0.52 +0.10    +0.102 C 
DOCKED: BRANCH  31  32
DOCKED: ATOM     32  CGA HEM A1501      52.061  84.766  13.160 -0.49 +0.26    +0.186 C 
DOCKED: ATOM     33  O1A HEM A1501      52.564  85.416  12.215 -0.44 -1.39    -0.647 OA
DOCKED: ATOM     34  O2A HEM A1501      51.103  85.181  13.843 -0.69 -0.88    -0.647 OA
DOCKED: ENDBRANCH  31  32
DOCKED: ENDBRANCH  30  31
DOCKED: ENDBRANCH   6  30
DOCKED: BRANCH  22  35
DOCKED: ATOM     35  CAD HEM A1501      53.887  82.239   7.271 -0.43 +0.06    +0.039 C 
DOCKED: BRANCH  35  36
DOCKED: ATOM     36  CBD HEM A1501      52.395  82.552   7.172 -0.56 +0.17    +0.102 C 
DOCKED: BRANCH  36  37
DOCKED: ATOM     37  CGD HEM A1501      52.093  83.710   6.239 -0.63 +0.36    +0.186 C 
DOCKED: ATOM     38  O1D HEM A1501      52.936  84.630   6.325 -1.21 -1.69    -0.647 OA
DOCKED: ATOM     39  O2D HEM A1501      51.082  83.705   5.406 -1.02 -1.33    -0.647 OA
DOCKED: ENDBRANCH  36  37
DOCKED: ENDBRANCH  35  36
DOCKED: ENDBRANCH  22  35
DOCKED: BRANCH  17  40
DOCKED: ATOM     40  CAC HEM A1501      54.798  74.294   6.470 -0.61 +0.00    +0.001 C 
DOCKED: ATOM     41  CBC HEM A1501      53.764  74.535   5.649 -0.67 +0.00    +0.000 C 
DOCKED: ENDBRANCH  17  40
DOCKED: BRANCH  12  42
DOCKED: ATOM     42  CAB HEM A1501      56.035  73.608  14.199 -0.57 +0.00    +0.001 C 
DOCKED: ATOM     43  CBB HEM A1501      57.036  73.108  14.896 -0.65 +0.00    +0.000 C 
DOCKED: ENDBRANCH  12  42
DOCKED: TORSDOF 8
DOCKED: TER
DOCKED: ENDMDL
________________________________________________________________________________


	BEGINNING GENETIC ALGORITHM DOCKING 86 of 100
Run: 86 Seed: 1665981905 1199465572 [ Run 86 of 100 GA/GALS ]
Beginning LAMARCKIAN GENETIC ALGORITHM (LGA), with a maximum of 2500000 energy evaluations.

Final-Value: -23.197


	FINAL GENETIC ALGORITHM DOCKED STATE
	_______________________________________________


Detailed state:  trans 54.887 78.996 10.667 quatxyzw -0.174500 0.970246 -0.167063 -0.016198 center 54.495 78.699 10.493 ntor 8 177.0174 34.5808 -29.5143 180.0000 15.0553 -4.2190 162.6253 -160.8144
State:	 54.887  78.996  10.667  -0.175  0.970 -0.167 -178.144    177.02   34.58  -29.51  180.00   15.06   -4.22  162.63 -160.81

DOCKED: MODEL       86
DOCKED: USER    Run = 86
DOCKED: USER    DPF = C:/Users/georg/Desktop/fall2024/4-Computational_Biology/Assignment/executables/HEM.dpf
DOCKED: USER  
DOCKED: USER    Estimated Free Energy of Binding    =  -20.28 kcal/mol  [=(1)+(2)+(3)-(4)]
DOCKED: USER    Estimated Inhibition Constant, Ki   =    1.37 fM (femtomolar)  [Temperature = 298.15 K]
DOCKED: USER    
DOCKED: USER    (1) Final Intermolecular Energy     =  -22.66 kcal/mol
DOCKED: USER        vdW + Hbond + desolv Energy     =  -18.55 kcal/mol
DOCKED: USER        Electrostatic Energy            =   -4.11 kcal/mol
DOCKED: USER    (2) Final Total Internal Energy     =   -0.53 kcal/mol
DOCKED: USER    (3) Torsional Free Energy           =   +2.39 kcal/mol
DOCKED: USER    (4) Unbound System's Energy  [=(2)] =   -0.53 kcal/mol
DOCKED: USER    
DOCKED: USER    
DOCKED: USER    NEWDPF move HEM.pdbqt
DOCKED: USER    NEWDPF about 54.495000 78.699000 10.493000
DOCKED: USER    NEWDPF tran0 54.886831 78.995563 10.666938
DOCKED: USER    NEWDPF quaternion0 -0.174500 0.970246 -0.167063 -0.016198
DOCKED: USER    NEWDPF axisangle0 -0.174522 0.970373 -0.167085 -178.143812
DOCKED: USER    NEWDPF quat0 -0.174522 0.970373 -0.167085 -178.143812
DOCKED: USER    NEWDPF dihe0 177.02 34.58 -29.51 180.00 15.06 -4.22 162.63 -160.81 
DOCKED: USER  keepresnum = 1 
DOCKED: USER  
DOCKED: REMARK  8 active torsions:
DOCKED: REMARK  status: ('A' for Active; 'I' for Inactive)
DOCKED: REMARK    1  A    between atoms: C2A_3624  and  CAA_3628 
DOCKED: REMARK    2  A    between atoms: CAA_3628  and  CBA_3629 
DOCKED: REMARK    3  A    between atoms: CBA_3629  and  CGA_3630 
DOCKED: REMARK    4  A    between atoms: C3B_3635  and  CAB_3638 
DOCKED: REMARK    5  A    between atoms: C3C_3642  and  CAC_3645 
DOCKED: REMARK    6  A    between atoms: C3D_3649  and  CAD_3652 
DOCKED: REMARK    7  A    between atoms: CAD_3652  and  CBD_3653 
DOCKED: REMARK    8  A    between atoms: CBD_3653  and  CGD_3654 
DOCKED: USER                              x       y       z     vdW  Elec       q    Type
DOCKED: USER                           _______ _______ _______ _____ _____    ______ ____
DOCKED: ROOT
DOCKED: ATOM      1  CHA HEM A1501      54.136  81.210  10.285 -0.28 +0.04    +0.038 A 
DOCKED: ATOM      2  CHB HEM A1501      54.569  77.314   7.497 -0.38 +0.03    +0.038 A 
DOCKED: ATOM      3  CHC HEM A1501      55.421  74.593  11.389 -0.40 +0.01    +0.038 A 
DOCKED: ATOM      4  CHD HEM A1501      55.053  78.506  14.175 -0.40 +0.02    +0.038 A 
DOCKED: ATOM      5  C1A HEM A1501      54.206  80.388   9.165 -0.27 +0.08    +0.079 A 
DOCKED: ATOM      6  C2A HEM A1501      54.052  80.795   7.764 -0.36 -0.01    -0.006 A 
DOCKED: ATOM      7  C3A HEM A1501      54.172  79.704   7.022 -0.36 -0.01    -0.007 A 
DOCKED: ATOM      8  C4A HEM A1501      54.411  78.618   7.923 -0.33 +0.06    +0.079 A 
DOCKED: ATOM      9  CMA HEM A1501      54.101  79.606   5.528 -0.48 +0.03    +0.032 C 
DOCKED: ATOM     10  C1B HEM A1501      54.809  76.217   8.304 -0.36 +0.04    +0.079 A 
DOCKED: ATOM     11  C2B HEM A1501      54.950  74.854   7.805 -0.47 -0.00    -0.003 A 
DOCKED: ATOM     12  C3B HEM A1501      55.173  74.091   8.907 -0.45 +0.01    +0.015 A 
DOCKED: ATOM     13  C4B HEM A1501      55.194  74.988  10.059 -0.36 +0.03    +0.083 A 
DOCKED: ATOM     14  CMB HEM A1501      54.847  74.453   6.359 -0.58 +0.02    +0.033 C 
DOCKED: ATOM     15  C1C HEM A1501      55.439  75.375  12.512 -0.34 +0.03    +0.079 A 
DOCKED: ATOM     16  C2C HEM A1501      55.760  74.922  13.837 -0.41 -0.00    -0.003 A 
DOCKED: ATOM     17  C3C HEM A1501      55.680  76.012  14.641 -0.39 +0.01    +0.015 A 
DOCKED: ATOM     18  C4C HEM A1501      55.292  77.147  13.780 -0.33 +0.03    +0.083 A 
DOCKED: ATOM     19  CMC HEM A1501      56.109  73.485  14.171 -0.55 +0.01    +0.033 C 
DOCKED: ATOM     20  C1D HEM A1501      54.706  79.616  13.367 -0.33 +0.05    +0.079 A 
DOCKED: ATOM     21  C2D HEM A1501      54.490  80.947  13.848 -0.40 -0.00    -0.007 A 
DOCKED: ATOM     22  C3D HEM A1501      54.230  81.712  12.756 -0.35 -0.00    -0.006 A 
DOCKED: ATOM     23  C4D HEM A1501      54.295  80.842  11.598 -0.23 +0.07    +0.079 A 
DOCKED: ATOM     24  CMD HEM A1501      54.542  81.398  15.253 -0.48 +0.01    +0.032 C 
DOCKED: ATOM     25  NA  HEM A1501      54.458  79.042   9.218 -0.18 -0.20    -0.246 N 
DOCKED: ATOM     26  NB  HEM A1501      54.949  76.257   9.671 -0.03 -0.12    -0.246 N 
DOCKED: ATOM     27  NC  HEM A1501      55.191  76.708  12.523 -0.14 -0.11    -0.246 N 
DOCKED: ATOM     28  ND  HEM A1501      54.589  79.579  12.006 -0.12 -0.17    -0.246 N 
DOCKED: ATOM     29 FE   HEM A1501      54.807  77.902  10.876 -0.07 +0.00    +0.000 Fe
DOCKED: ENDROOT
DOCKED: BRANCH   6  30
DOCKED: ATOM     30  CAA HEM A1501      53.810  82.164   7.233 -0.45 +0.06    +0.039 C 
DOCKED: BRANCH  30  31
DOCKED: ATOM     31  CBA HEM A1501      52.345  82.393   6.919 -0.58 +0.16    +0.102 C 
DOCKED: BRANCH  31  32
DOCKED: ATOM     32  CGA HEM A1501      52.067  83.650   6.139 -0.63 +0.35    +0.186 C 
DOCKED: ATOM     33  O1A HEM A1501      51.064  83.675   5.391 -1.03 -1.33    -0.647 OA
DOCKED: ATOM     34  O2A HEM A1501      52.822  84.630   6.306 -1.16 -1.66    -0.647 OA
DOCKED: ENDBRANCH  31  32
DOCKED: ENDBRANCH  30  31
DOCKED: ENDBRANCH   6  30
DOCKED: BRANCH  22  35
DOCKED: ATOM     35  CAD HEM A1501      53.943  83.165  12.811 -0.42 +0.04    +0.039 C 
DOCKED: BRANCH  35  36
DOCKED: ATOM     36  CBD HEM A1501      52.522  83.449  13.295 -0.53 +0.11    +0.102 C 
DOCKED: BRANCH  36  37
DOCKED: ATOM     37  CGD HEM A1501      52.220  84.931  13.410 -0.48 +0.27    +0.186 C 
DOCKED: ATOM     38  O1D HEM A1501      53.202  85.592  13.813 -0.45 -1.05    -0.647 OA
DOCKED: ATOM     39  O2D HEM A1501      51.065  85.448  13.071 -0.65 -1.01    -0.647 OA
DOCKED: ENDBRANCH  36  37
DOCKED: ENDBRANCH  35  36
DOCKED: ENDBRANCH  22  35
DOCKED: BRANCH  17  40
DOCKED: ATOM     40  CAC HEM A1501      55.912  76.096  16.088 -0.57 +0.00    +0.001 C 
DOCKED: ATOM     41  CBC HEM A1501      55.203  75.489  17.052 -0.65 +0.00    +0.000 C 
DOCKED: ENDBRANCH  17  40
DOCKED: BRANCH  12  42
DOCKED: ATOM     42  CAB HEM A1501      55.382  72.632   9.055 -0.55 +0.00    +0.001 C 
DOCKED: ATOM     43  CBB HEM A1501      55.593  71.702   8.146 -0.55 +0.00    +0.000 C 
DOCKED: ENDBRANCH  12  42
DOCKED: TORSDOF 8
DOCKED: TER
DOCKED: ENDMDL
________________________________________________________________________________


	BEGINNING GENETIC ALGORITHM DOCKING 87 of 100
Run: 87 Seed: 1858952392 1144571207 [ Run 87 of 100 GA/GALS ]
Beginning LAMARCKIAN GENETIC ALGORITHM (LGA), with a maximum of 2500000 energy evaluations.

Final-Value: -23.294


	FINAL GENETIC ALGORITHM DOCKED STATE
	_______________________________________________


Detailed state:  trans 54.935 78.873 10.443 quatxyzw -0.167341 0.973771 -0.153356 -0.015798 center 54.495 78.699 10.493 ntor 8 125.0326 38.4917 177.9743 -152.4546 -6.7133 -9.1448 146.9761 -175.2363
State:	 54.935  78.873  10.443  -0.167  0.974 -0.153 -178.190    125.03   38.49  177.97 -152.45   -6.71   -9.14  146.98 -175.24

DOCKED: MODEL       87
DOCKED: USER    Run = 87
DOCKED: USER    DPF = C:/Users/georg/Desktop/fall2024/4-Computational_Biology/Assignment/executables/HEM.dpf
DOCKED: USER  
DOCKED: USER    Estimated Free Energy of Binding    =  -20.39 kcal/mol  [=(1)+(2)+(3)-(4)]
DOCKED: USER    Estimated Inhibition Constant, Ki   =    1.14 fM (femtomolar)  [Temperature = 298.15 K]
DOCKED: USER    
DOCKED: USER    (1) Final Intermolecular Energy     =  -22.77 kcal/mol
DOCKED: USER        vdW + Hbond + desolv Energy     =  -18.50 kcal/mol
DOCKED: USER        Electrostatic Energy            =   -4.28 kcal/mol
DOCKED: USER    (2) Final Total Internal Energy     =   -0.52 kcal/mol
DOCKED: USER    (3) Torsional Free Energy           =   +2.39 kcal/mol
DOCKED: USER    (4) Unbound System's Energy  [=(2)] =   -0.52 kcal/mol
DOCKED: USER    
DOCKED: USER    
DOCKED: USER    NEWDPF move HEM.pdbqt
DOCKED: USER    NEWDPF about 54.495000 78.699000 10.493000
DOCKED: USER    NEWDPF tran0 54.934594 78.872652 10.442975
DOCKED: USER    NEWDPF quaternion0 -0.167341 0.973771 -0.153356 -0.015798
DOCKED: USER    NEWDPF axisangle0 -0.167362 0.973892 -0.153375 -178.189554
DOCKED: USER    NEWDPF quat0 -0.167362 0.973892 -0.153375 -178.189554
DOCKED: USER    NEWDPF dihe0 125.03 38.49 177.97 -152.45 -6.71 -9.14 146.98 -175.24 
DOCKED: USER  keepresnum = 1 
DOCKED: USER  
DOCKED: REMARK  8 active torsions:
DOCKED: REMARK  status: ('A' for Active; 'I' for Inactive)
DOCKED: REMARK    1  A    between atoms: C2A_3624  and  CAA_3628 
DOCKED: REMARK    2  A    between atoms: CAA_3628  and  CBA_3629 
DOCKED: REMARK    3  A    between atoms: CBA_3629  and  CGA_3630 
DOCKED: REMARK    4  A    between atoms: C3B_3635  and  CAB_3638 
DOCKED: REMARK    5  A    between atoms: C3C_3642  and  CAC_3645 
DOCKED: REMARK    6  A    between atoms: C3D_3649  and  CAD_3652 
DOCKED: REMARK    7  A    between atoms: CAD_3652  and  CBD_3653 
DOCKED: REMARK    8  A    between atoms: CBD_3653  and  CGD_3654 
DOCKED: USER                              x       y       z     vdW  Elec       q    Type
DOCKED: USER                           _______ _______ _______ _____ _____    ______ ____
DOCKED: ROOT
DOCKED: ATOM      1  CHA HEM A1501      54.215  81.107  10.125 -0.28 +0.04    +0.038 A 
DOCKED: ATOM      2  CHB HEM A1501      54.582  77.285   7.228 -0.39 +0.03    +0.038 A 
DOCKED: ATOM      3  CHC HEM A1501      55.405  74.444  11.040 -0.41 +0.01    +0.038 A 
DOCKED: ATOM      4  CHD HEM A1501      55.104  78.283  13.936 -0.38 +0.02    +0.038 A 
DOCKED: ATOM      5  C1A HEM A1501      54.270  80.316   8.983 -0.27 +0.08    +0.079 A 
DOCKED: ATOM      6  C2A HEM A1501      54.117  80.764   7.594 -0.35 -0.01    -0.006 A 
DOCKED: ATOM      7  C3A HEM A1501      54.219  79.693   6.822 -0.37 -0.01    -0.007 A 
DOCKED: ATOM      8  C4A HEM A1501      54.445  78.579   7.691 -0.33 +0.06    +0.079 A 
DOCKED: ATOM      9  CMA HEM A1501      54.143  79.638   5.326 -0.49 +0.03    +0.032 C 
DOCKED: ATOM     10  C1B HEM A1501      54.809  76.163   8.004 -0.37 +0.04    +0.079 A 
DOCKED: ATOM     11  C2B HEM A1501      54.927  74.812   7.467 -0.48 -0.00    -0.003 A 
DOCKED: ATOM     12  C3B HEM A1501      55.143  74.015   8.546 -0.45 +0.01    +0.015 A 
DOCKED: ATOM     13  C4B HEM A1501      55.181  74.879   9.723 -0.38 +0.03    +0.083 A 
DOCKED: ATOM     14  CMB HEM A1501      54.814  74.454   6.011 -0.60 +0.02    +0.033 C 
DOCKED: ATOM     15  C1C HEM A1501      55.438  75.195  12.184 -0.34 +0.03    +0.079 A 
DOCKED: ATOM     16  C2C HEM A1501      55.757  74.699  13.495 -0.43 -0.00    -0.003 A 
DOCKED: ATOM     17  C3C HEM A1501      55.695  75.768  14.330 -0.38 +0.01    +0.015 A 
DOCKED: ATOM     18  C4C HEM A1501      55.322  76.932  13.502 -0.31 +0.03    +0.083 A 
DOCKED: ATOM     19  CMC HEM A1501      56.085  73.249  13.788 -0.53 +0.01    +0.033 C 
DOCKED: ATOM     20  C1D HEM A1501      54.771  79.420  13.160 -0.31 +0.05    +0.079 A 
DOCKED: ATOM     21  C2D HEM A1501      54.576  80.740  13.678 -0.39 -0.00    -0.007 A 
DOCKED: ATOM     22  C3D HEM A1501      54.325  81.539  12.610 -0.33 -0.00    -0.006 A 
DOCKED: ATOM     23  C4D HEM A1501      54.373  80.701  11.427 -0.22 +0.07    +0.079 A 
DOCKED: ATOM     24  CMD HEM A1501      54.640  81.151  15.096 -0.46 +0.01    +0.032 C 
DOCKED: ATOM     25  NA  HEM A1501      54.502  78.966   8.997 -0.19 -0.20    -0.246 N 
DOCKED: ATOM     26  NB  HEM A1501      54.953  76.162   9.371 -0.16 -0.12    -0.246 N 
DOCKED: ATOM     27  NC  HEM A1501      55.211  76.530  12.234 -0.10 -0.11    -0.246 N 
DOCKED: ATOM     28  ND  HEM A1501      54.649  79.423  11.799 -0.10 -0.17    -0.246 N 
DOCKED: ATOM     29 FE   HEM A1501      54.839  77.775  10.622 -0.07 +0.00    +0.000 Fe
DOCKED: ENDROOT
DOCKED: BRANCH   6  30
DOCKED: ATOM     30  CAA HEM A1501      53.895  82.151   7.102 -0.44 +0.06    +0.039 C 
DOCKED: BRANCH  30  31
DOCKED: ATOM     31  CBA HEM A1501      52.536  82.302   6.447 -0.58 +0.15    +0.102 C 
DOCKED: BRANCH  31  32
DOCKED: ATOM     32  CGA HEM A1501      52.143  83.725   6.156 -0.64 +0.36    +0.186 C 
DOCKED: ATOM     33  O1A HEM A1501      52.935  84.639   6.482 -1.16 -1.75    -0.647 OA
DOCKED: ATOM     34  O2A HEM A1501      51.066  83.932   5.560 -1.00 -1.36    -0.647 OA
DOCKED: ENDBRANCH  31  32
DOCKED: ENDBRANCH  30  31
DOCKED: ENDBRANCH   6  30
DOCKED: BRANCH  22  35
DOCKED: ATOM     35  CAD HEM A1501      54.059  82.994  12.706 -0.41 +0.04    +0.039 C 
DOCKED: BRANCH  35  36
DOCKED: ATOM     36  CBD HEM A1501      52.568  83.294  12.855 -0.51 +0.11    +0.102 C 
DOCKED: BRANCH  36  37
DOCKED: ATOM     37  CGD HEM A1501      52.283  84.759  13.127 -0.47 +0.27    +0.186 C 
DOCKED: ATOM     38  O1D HEM A1501      53.322  85.416  13.361 -0.58 -1.15    -0.647 OA
DOCKED: ATOM     39  O2D HEM A1501      51.078  85.270  13.068 -0.59 -0.95    -0.647 OA
DOCKED: ENDBRANCH  36  37
DOCKED: ENDBRANCH  35  36
DOCKED: ENDBRANCH  22  35
DOCKED: BRANCH  17  40
DOCKED: ATOM     40  CAC HEM A1501      55.933  75.808  15.778 -0.54 +0.00    +0.001 C 
DOCKED: ATOM     41  CBC HEM A1501      55.039  76.110  16.731 -0.58 +0.00    +0.000 C 
DOCKED: ENDBRANCH  17  40
DOCKED: BRANCH  12  42
DOCKED: ATOM     42  CAB HEM A1501      55.330  72.550   8.653 -0.55 +0.00    +0.001 C 
DOCKED: ATOM     43  CBB HEM A1501      55.592  71.652   7.725 -0.55 +0.00    +0.000 C 
DOCKED: ENDBRANCH  12  42
DOCKED: TORSDOF 8
DOCKED: TER
DOCKED: ENDMDL
________________________________________________________________________________


	BEGINNING GENETIC ALGORITHM DOCKING 88 of 100
Run: 88 Seed: 2147133776 1240640350 [ Run 88 of 100 GA/GALS ]
Beginning LAMARCKIAN GENETIC ALGORITHM (LGA), with a maximum of 2500000 energy evaluations.

Final-Value: -23.548


	FINAL GENETIC ALGORITHM DOCKED STATE
	_______________________________________________


Detailed state:  trans 54.903 79.003 10.792 quatxyzw 0.184780 -0.974087 0.130393 -0.002914 center 54.495 78.699 10.493 ntor 8 136.2597 -124.8156 -0.3198 -112.1782 16.1668 16.4117 139.5707 -179.6212
State:	 54.903  79.003  10.792   0.185 -0.974  0.130 -179.666    136.26 -124.82   -0.32 -112.18   16.17   16.41  139.57 -179.62

DOCKED: MODEL       88
DOCKED: USER    Run = 88
DOCKED: USER    DPF = C:/Users/georg/Desktop/fall2024/4-Computational_Biology/Assignment/executables/HEM.dpf
DOCKED: USER  
DOCKED: USER    Estimated Free Energy of Binding    =  -20.68 kcal/mol  [=(1)+(2)+(3)-(4)]
DOCKED: USER    Estimated Inhibition Constant, Ki   =  693.94 aM (attomolar)  [Temperature = 298.15 K]
DOCKED: USER    
DOCKED: USER    (1) Final Intermolecular Energy     =  -23.07 kcal/mol
DOCKED: USER        vdW + Hbond + desolv Energy     =  -18.60 kcal/mol
DOCKED: USER        Electrostatic Energy            =   -4.46 kcal/mol
DOCKED: USER    (2) Final Total Internal Energy     =   -0.48 kcal/mol
DOCKED: USER    (3) Torsional Free Energy           =   +2.39 kcal/mol
DOCKED: USER    (4) Unbound System's Energy  [=(2)] =   -0.48 kcal/mol
DOCKED: USER    
DOCKED: USER    
DOCKED: USER    NEWDPF move HEM.pdbqt
DOCKED: USER    NEWDPF about 54.495000 78.699000 10.493000
DOCKED: USER    NEWDPF tran0 54.903273 79.003459 10.792281
DOCKED: USER    NEWDPF quaternion0 0.184780 -0.974087 0.130393 -0.002914
DOCKED: USER    NEWDPF axisangle0 0.184781 -0.974091 0.130394 -179.666131
DOCKED: USER    NEWDPF quat0 0.184781 -0.974091 0.130394 -179.666131
DOCKED: USER    NEWDPF dihe0 136.26 -124.82 -0.32 -112.18 16.17 16.41 139.57 -179.62 
DOCKED: USER  keepresnum = 1 
DOCKED: USER  
DOCKED: REMARK  8 active torsions:
DOCKED: REMARK  status: ('A' for Active; 'I' for Inactive)
DOCKED: REMARK    1  A    between atoms: C2A_3624  and  CAA_3628 
DOCKED: REMARK    2  A    between atoms: CAA_3628  and  CBA_3629 
DOCKED: REMARK    3  A    between atoms: CBA_3629  and  CGA_3630 
DOCKED: REMARK    4  A    between atoms: C3B_3635  and  CAB_3638 
DOCKED: REMARK    5  A    between atoms: C3C_3642  and  CAC_3645 
DOCKED: REMARK    6  A    between atoms: C3D_3649  and  CAD_3652 
DOCKED: REMARK    7  A    between atoms: CAD_3652  and  CBD_3653 
DOCKED: REMARK    8  A    between atoms: CBD_3653  and  CGD_3654 
DOCKED: USER                              x       y       z     vdW  Elec       q    Type
DOCKED: USER                           _______ _______ _______ _____ _____    ______ ____
DOCKED: ROOT
DOCKED: ATOM      1  CHA HEM A1501      54.107  81.226  10.597 -0.28 +0.04    +0.038 A 
DOCKED: ATOM      2  CHB HEM A1501      54.435  77.527   7.539 -0.40 +0.03    +0.038 A 
DOCKED: ATOM      3  CHC HEM A1501      55.527  74.572  11.194 -0.40 +0.01    +0.038 A 
DOCKED: ATOM      4  CHD HEM A1501      55.264  78.289  14.247 -0.39 +0.02    +0.038 A 
DOCKED: ATOM      5  C1A HEM A1501      54.126  80.480   9.423 -0.25 +0.08    +0.079 A 
DOCKED: ATOM      6  C2A HEM A1501      53.892  80.975   8.063 -0.37 -0.01    -0.006 A 
DOCKED: ATOM      7  C3A HEM A1501      53.985  79.936   7.245 -0.37 -0.01    -0.007 A 
DOCKED: ATOM      8  C4A HEM A1501      54.285  78.798   8.058 -0.33 +0.07    +0.079 A 
DOCKED: ATOM      9  CMA HEM A1501      53.835  79.935   5.754 -0.47 +0.03    +0.032 C 
DOCKED: ATOM     10  C1B HEM A1501      54.731  76.384   8.259 -0.36 +0.05    +0.079 A 
DOCKED: ATOM     11  C2B HEM A1501      54.860  75.058   7.665 -0.47 -0.00    -0.003 A 
DOCKED: ATOM     12  C3B HEM A1501      55.152  74.229   8.701 -0.45 +0.01    +0.015 A 
DOCKED: ATOM     13  C4B HEM A1501      55.224  75.049   9.907 -0.36 +0.03    +0.083 A 
DOCKED: ATOM     14  CMB HEM A1501      54.685  74.751   6.204 -0.60 +0.02    +0.033 C 
DOCKED: ATOM     15  C1C HEM A1501      55.596  75.280  12.363 -0.35 +0.03    +0.079 A 
DOCKED: ATOM     16  C2C HEM A1501      55.993  74.746  13.637 -0.43 -0.00    -0.003 A 
DOCKED: ATOM     17  C3C HEM A1501      55.944  75.781  14.514 -0.40 +0.01    +0.015 A 
DOCKED: ATOM     18  C4C HEM A1501      55.497  76.962  13.751 -0.32 +0.03    +0.083 A 
DOCKED: ATOM     19  CMC HEM A1501      56.376  73.296  13.857 -0.52 +0.01    +0.033 C 
DOCKED: ATOM     20  C1D HEM A1501      54.861  79.444  13.533 -0.33 +0.04    +0.079 A 
DOCKED: ATOM     21  C2D HEM A1501      54.655  80.738  14.111 -0.40 -0.00    -0.007 A 
DOCKED: ATOM     22  C3D HEM A1501      54.328  81.568  13.088 -0.35 -0.00    -0.006 A 
DOCKED: ATOM     23  C4D HEM A1501      54.341  80.776  11.873 -0.24 +0.06    +0.079 A 
DOCKED: ATOM     24  CMD HEM A1501      54.778  81.097  15.538 -0.41 +0.01    +0.032 C 
DOCKED: ATOM     25  NA  HEM A1501      54.396  79.138   9.374 -0.17 -0.20    -0.246 N 
DOCKED: ATOM     26  NB  HEM A1501      54.944  76.337   9.616 -0.02 -0.12    -0.246 N 
DOCKED: ATOM     27  NC  HEM A1501      55.334  76.605  12.476 -0.16 -0.11    -0.246 N 
DOCKED: ATOM     28  ND  HEM A1501      54.671  79.494  12.180 -0.14 -0.17    -0.246 N 
DOCKED: ATOM     29 FE   HEM A1501      54.847  77.898  10.933 -0.07 +0.00    +0.000 Fe
DOCKED: ENDROOT
DOCKED: BRANCH   6  30
DOCKED: ATOM     30  CAA HEM A1501      53.607  82.372   7.635 -0.39 +0.06    +0.039 C 
DOCKED: BRANCH  30  31
DOCKED: ATOM     31  CBA HEM A1501      52.289  82.473   6.892 -0.58 +0.16    +0.102 C 
DOCKED: BRANCH  31  32
DOCKED: ATOM     32  CGA HEM A1501      52.075  83.783   6.186 -0.64 +0.36    +0.186 C 
DOCKED: ATOM     33  O1A HEM A1501      51.002  83.954   5.562 -0.96 -1.38    -0.647 OA
DOCKED: ATOM     34  O2A HEM A1501      52.953  84.664   6.291 -1.20 -1.70    -0.647 OA
DOCKED: ENDBRANCH  31  32
DOCKED: ENDBRANCH  30  31
DOCKED: ENDBRANCH   6  30
DOCKED: BRANCH  22  35
DOCKED: ATOM     35  CAD HEM A1501      54.028  83.010  13.253 -0.41 +0.04    +0.039 C 
DOCKED: BRANCH  35  36
DOCKED: ATOM     36  CBD HEM A1501      52.527  83.270  13.379 -0.52 +0.10    +0.102 C 
DOCKED: BRANCH  36  37
DOCKED: ATOM     37  CGD HEM A1501      52.151  84.714  13.104 -0.49 +0.26    +0.186 C 
DOCKED: ATOM     38  O1D HEM A1501      52.911  85.260  12.275 -0.55 -1.40    -0.647 OA
DOCKED: ATOM     39  O2D HEM A1501      51.108  85.290  13.648 -0.73 -0.92    -0.647 OA
DOCKED: ENDBRANCH  36  37
DOCKED: ENDBRANCH  35  36
DOCKED: ENDBRANCH  22  35
DOCKED: BRANCH  17  40
DOCKED: ATOM     40  CAC HEM A1501      56.253  75.773  15.949 -0.55 +0.00    +0.001 C 
DOCKED: ATOM     41  CBC HEM A1501      55.372  75.804  16.961 -0.65 +0.00    +0.000 C 
DOCKED: ENDBRANCH  17  40
DOCKED: BRANCH  12  42
DOCKED: ATOM     42  CAB HEM A1501      55.385  72.767   8.742 -0.54 +0.00    +0.001 C 
DOCKED: ATOM     43  CBB HEM A1501      55.136  71.888   9.692 -0.57 +0.00    +0.000 C 
DOCKED: ENDBRANCH  12  42
DOCKED: TORSDOF 8
DOCKED: TER
DOCKED: ENDMDL
________________________________________________________________________________


	BEGINNING GENETIC ALGORITHM DOCKING 89 of 100
Run: 89 Seed: 1464113500 739810761 [ Run 89 of 100 GA/GALS ]
Beginning LAMARCKIAN GENETIC ALGORITHM (LGA), with a maximum of 2500000 energy evaluations.

Final-Value: -23.209


	FINAL GENETIC ALGORITHM DOCKED STATE
	_______________________________________________


Detailed state:  trans 54.897 78.756 10.191 quatxyzw -0.169944 0.962782 -0.210109 -0.004955 center 54.495 78.699 10.493 ntor 8 -180.0000 175.3610 95.3805 -145.4648 11.5495 -30.9198 -149.8356 -164.7383
State:	 54.897  78.756  10.191  -0.170  0.963 -0.210 -179.432   -180.00  175.36   95.38 -145.46   11.55  -30.92 -149.84 -164.74

DOCKED: MODEL       89
DOCKED: USER    Run = 89
DOCKED: USER    DPF = C:/Users/georg/Desktop/fall2024/4-Computational_Biology/Assignment/executables/HEM.dpf
DOCKED: USER  
DOCKED: USER    Estimated Free Energy of Binding    =  -20.29 kcal/mol  [=(1)+(2)+(3)-(4)]
DOCKED: USER    Estimated Inhibition Constant, Ki   =    1.35 fM (femtomolar)  [Temperature = 298.15 K]
DOCKED: USER    
DOCKED: USER    (1) Final Intermolecular Energy     =  -22.67 kcal/mol
DOCKED: USER        vdW + Hbond + desolv Energy     =  -18.34 kcal/mol
DOCKED: USER        Electrostatic Energy            =   -4.33 kcal/mol
DOCKED: USER    (2) Final Total Internal Energy     =   -0.54 kcal/mol
DOCKED: USER    (3) Torsional Free Energy           =   +2.39 kcal/mol
DOCKED: USER    (4) Unbound System's Energy  [=(2)] =   -0.54 kcal/mol
DOCKED: USER    
DOCKED: USER    
DOCKED: USER    NEWDPF move HEM.pdbqt
DOCKED: USER    NEWDPF about 54.495000 78.699000 10.493000
DOCKED: USER    NEWDPF tran0 54.897091 78.755899 10.190986
DOCKED: USER    NEWDPF quaternion0 -0.169944 0.962782 -0.210109 -0.004955
DOCKED: USER    NEWDPF axisangle0 -0.169946 0.962793 -0.210112 -179.432146
DOCKED: USER    NEWDPF quat0 -0.169946 0.962793 -0.210112 -179.432146
DOCKED: USER    NEWDPF dihe0 -180.00 175.36 95.38 -145.46 11.55 -30.92 -149.84 -164.74 
DOCKED: USER  keepresnum = 1 
DOCKED: USER  
DOCKED: REMARK  8 active torsions:
DOCKED: REMARK  status: ('A' for Active; 'I' for Inactive)
DOCKED: REMARK    1  A    between atoms: C2A_3624  and  CAA_3628 
DOCKED: REMARK    2  A    between atoms: CAA_3628  and  CBA_3629 
DOCKED: REMARK    3  A    between atoms: CBA_3629  and  CGA_3630 
DOCKED: REMARK    4  A    between atoms: C3B_3635  and  CAB_3638 
DOCKED: REMARK    5  A    between atoms: C3C_3642  and  CAC_3645 
DOCKED: REMARK    6  A    between atoms: C3D_3649  and  CAD_3652 
DOCKED: REMARK    7  A    between atoms: CAD_3652  and  CBD_3653 
DOCKED: REMARK    8  A    between atoms: CBD_3653  and  CGD_3654 
DOCKED: USER                              x       y       z     vdW  Elec       q    Type
DOCKED: USER                           _______ _______ _______ _____ _____    ______ ____
DOCKED: ROOT
DOCKED: ATOM      1  CHA HEM A1501      54.169  80.935   9.615 -0.30 +0.04    +0.038 A 
DOCKED: ATOM      2  CHB HEM A1501      54.543  76.800   7.186 -0.42 +0.02    +0.038 A 
DOCKED: ATOM      3  CHC HEM A1501      55.386  74.430  11.303 -0.40 +0.01    +0.038 A 
DOCKED: ATOM      4  CHD HEM A1501      55.077  78.581  13.729 -0.36 +0.02    +0.038 A 
DOCKED: ATOM      5  C1A HEM A1501      54.223  80.015   8.573 -0.29 +0.08    +0.079 A 
DOCKED: ATOM      6  C2A HEM A1501      54.066  80.297   7.142 -0.36 -0.01    -0.006 A 
DOCKED: ATOM      7  C3A HEM A1501      54.170  79.143   6.500 -0.39 -0.01    -0.007 A 
DOCKED: ATOM      8  C4A HEM A1501      54.402  78.139   7.494 -0.35 +0.06    +0.079 A 
DOCKED: ATOM      9  CMA HEM A1501      54.090  78.912   5.022 -0.49 +0.02    +0.032 C 
DOCKED: ATOM     10  C1B HEM A1501      54.776  75.778   8.087 -0.38 +0.04    +0.079 A 
DOCKED: ATOM     11  C2B HEM A1501      54.898  74.374   7.712 -0.48 -0.00    -0.003 A 
DOCKED: ATOM     12  C3B HEM A1501      55.119  73.710   8.877 -0.46 +0.01    +0.015 A 
DOCKED: ATOM     13  C4B HEM A1501      55.156  74.706   9.944 -0.38 +0.03    +0.083 A 
DOCKED: ATOM     14  CMB HEM A1501      54.783  73.847   6.309 -0.58 +0.02    +0.033 C 
DOCKED: ATOM     15  C1C HEM A1501      55.419  75.310  12.351 -0.34 +0.03    +0.079 A 
DOCKED: ATOM     16  C2C HEM A1501      55.743  74.973  13.709 -0.41 -0.00    -0.003 A 
DOCKED: ATOM     17  C3C HEM A1501      55.679  76.132  14.413 -0.39 +0.01    +0.015 A 
DOCKED: ATOM     18  C4C HEM A1501      55.299  77.189  13.455 -0.31 +0.04    +0.083 A 
DOCKED: ATOM     19  CMC HEM A1501      56.077  73.568  14.170 -0.55 +0.01    +0.033 C 
DOCKED: ATOM     20  C1D HEM A1501      54.738  79.618  12.825 -0.27 +0.05    +0.079 A 
DOCKED: ATOM     21  C2D HEM A1501      54.539  80.989  13.186 -0.35 -0.00    -0.007 A 
DOCKED: ATOM     22  C3D HEM A1501      54.282  81.656  12.031 -0.32 -0.01    -0.006 A 
DOCKED: ATOM     23  C4D HEM A1501      54.331  80.685  10.955 -0.20 +0.07    +0.079 A 
DOCKED: ATOM     24  CMD HEM A1501      54.605  81.564  14.545 -0.45 +0.02    +0.032 C 
DOCKED: ATOM     25  NA  HEM A1501      54.460  78.677   8.746 -0.21 -0.19    -0.246 N 
DOCKED: ATOM     26  NB  HEM A1501      54.923  75.939   9.444 -0.17 -0.12    -0.246 N 
DOCKED: ATOM     27  NC  HEM A1501      55.186  76.641  12.244 -0.08 -0.11    -0.246 N 
DOCKED: ATOM     28  ND  HEM A1501      54.613  79.460  11.473 -0.09 -0.18    -0.246 N 
DOCKED: ATOM     29 FE   HEM A1501      54.806  77.687  10.497 -0.07 +0.00    +0.000 Fe
DOCKED: ENDROOT
DOCKED: BRANCH   6  30
DOCKED: ATOM     30  CAA HEM A1501      53.837  81.616   6.491 -0.46 +0.05    +0.039 C 
DOCKED: BRANCH  30  31
DOCKED: ATOM     31  CBA HEM A1501      52.677  82.360   7.124 -0.54 +0.16    +0.102 C 
DOCKED: BRANCH  31  32
DOCKED: ATOM     32  CGA HEM A1501      52.279  83.617   6.400 -0.61 +0.36    +0.186 C 
DOCKED: ATOM     33  O1A HEM A1501      52.915  84.668   6.641 -1.11 -1.81    -0.647 OA
DOCKED: ATOM     34  O2A HEM A1501      51.362  83.549   5.555 -1.03 -1.25    -0.647 OA
DOCKED: ENDBRANCH  31  32
DOCKED: ENDBRANCH  30  31
DOCKED: ENDBRANCH   6  30
DOCKED: BRANCH  22  35
DOCKED: ATOM     35  CAD HEM A1501      54.012  83.111  11.956 -0.36 +0.05    +0.039 C 
DOCKED: BRANCH  35  36
DOCKED: ATOM     36  CBD HEM A1501      52.567  83.444  12.328 -0.45 +0.13    +0.102 C 
DOCKED: BRANCH  36  37
DOCKED: ATOM     37  CGD HEM A1501      52.414  84.827  12.932 -0.40 +0.29    +0.186 C 
DOCKED: ATOM     38  O1D HEM A1501      53.507  85.422  13.055 -0.58 -1.26    -0.647 OA
DOCKED: ATOM     39  O2D HEM A1501      51.248  85.343  13.237 -0.62 -0.99    -0.647 OA
DOCKED: ENDBRANCH  36  37
DOCKED: ENDBRANCH  35  36
DOCKED: ENDBRANCH  22  35
DOCKED: BRANCH  17  40
DOCKED: ATOM     40  CAC HEM A1501      55.920  76.342  15.846 -0.55 +0.00    +0.001 C 
DOCKED: ATOM     41  CBC HEM A1501      55.244  75.789  16.864 -0.64 +0.00    +0.000 C 
DOCKED: ENDBRANCH  17  40
DOCKED: BRANCH  12  42
DOCKED: ATOM     42  CAB HEM A1501      55.312  72.268   9.155 -0.57 +0.00    +0.001 C 
DOCKED: ATOM     43  CBB HEM A1501      55.986  71.666  10.115 -0.58 +0.00    +0.000 C 
DOCKED: ENDBRANCH  12  42
DOCKED: TORSDOF 8
DOCKED: TER
DOCKED: ENDMDL
________________________________________________________________________________


	BEGINNING GENETIC ALGORITHM DOCKING 90 of 100
Run: 90 Seed: 1285465789 1125188794 [ Run 90 of 100 GA/GALS ]
Beginning LAMARCKIAN GENETIC ALGORITHM (LGA), with a maximum of 2500000 energy evaluations.

Final-Value: -23.572


	FINAL GENETIC ALGORITHM DOCKED STATE
	_______________________________________________


Detailed state:  trans 54.954 78.879 10.627 quatxyzw 0.162805 -0.975791 0.145936 0.005438 center 54.495 78.699 10.493 ntor 8 122.8489 46.0436 144.8200 -119.4545 22.5688 18.8945 164.6094 -162.2064
State:	 54.954  78.879  10.627   0.163 -0.976  0.146 179.377    122.85   46.04  144.82 -119.45   22.57   18.89  164.61 -162.21

DOCKED: MODEL       90
DOCKED: USER    Run = 90
DOCKED: USER    DPF = C:/Users/georg/Desktop/fall2024/4-Computational_Biology/Assignment/executables/HEM.dpf
DOCKED: USER  
DOCKED: USER    Estimated Free Energy of Binding    =  -20.64 kcal/mol  [=(1)+(2)+(3)-(4)]
DOCKED: USER    Estimated Inhibition Constant, Ki   =  740.71 aM (attomolar)  [Temperature = 298.15 K]
DOCKED: USER    
DOCKED: USER    (1) Final Intermolecular Energy     =  -23.03 kcal/mol
DOCKED: USER        vdW + Hbond + desolv Energy     =  -18.63 kcal/mol
DOCKED: USER        Electrostatic Energy            =   -4.40 kcal/mol
DOCKED: USER    (2) Final Total Internal Energy     =   -0.54 kcal/mol
DOCKED: USER    (3) Torsional Free Energy           =   +2.39 kcal/mol
DOCKED: USER    (4) Unbound System's Energy  [=(2)] =   -0.54 kcal/mol
DOCKED: USER    
DOCKED: USER    
DOCKED: USER    NEWDPF move HEM.pdbqt
DOCKED: USER    NEWDPF about 54.495000 78.699000 10.493000
DOCKED: USER    NEWDPF tran0 54.953564 78.879385 10.626644
DOCKED: USER    NEWDPF quaternion0 0.162805 -0.975791 0.145936 0.005438
DOCKED: USER    NEWDPF axisangle0 0.162808 -0.975805 0.145938 179.376834
DOCKED: USER    NEWDPF quat0 0.162808 -0.975805 0.145938 179.376834
DOCKED: USER    NEWDPF dihe0 122.85 46.04 144.82 -119.45 22.57 18.89 164.61 -162.21 
DOCKED: USER  keepresnum = 1 
DOCKED: USER  
DOCKED: REMARK  8 active torsions:
DOCKED: REMARK  status: ('A' for Active; 'I' for Inactive)
DOCKED: REMARK    1  A    between atoms: C2A_3624  and  CAA_3628 
DOCKED: REMARK    2  A    between atoms: CAA_3628  and  CBA_3629 
DOCKED: REMARK    3  A    between atoms: CBA_3629  and  CGA_3630 
DOCKED: REMARK    4  A    between atoms: C3B_3635  and  CAB_3638 
DOCKED: REMARK    5  A    between atoms: C3C_3642  and  CAC_3645 
DOCKED: REMARK    6  A    between atoms: C3D_3649  and  CAD_3652 
DOCKED: REMARK    7  A    between atoms: CAD_3652  and  CBD_3653 
DOCKED: REMARK    8  A    between atoms: CBD_3653  and  CGD_3654 
DOCKED: USER                              x       y       z     vdW  Elec       q    Type
DOCKED: USER                           _______ _______ _______ _____ _____    ______ ____
DOCKED: ROOT
DOCKED: ATOM      1  CHA HEM A1501      54.256  81.126  10.350 -0.27 +0.04    +0.038 A 
DOCKED: ATOM      2  CHB HEM A1501      54.513  77.334   7.402 -0.39 +0.03    +0.038 A 
DOCKED: ATOM      3  CHC HEM A1501      55.381  74.438  11.162 -0.41 +0.01    +0.038 A 
DOCKED: ATOM      4  CHD HEM A1501      55.190  78.246  14.108 -0.39 +0.02    +0.038 A 
DOCKED: ATOM      5  C1A HEM A1501      54.276  80.348   9.198 -0.26 +0.08    +0.079 A 
DOCKED: ATOM      6  C2A HEM A1501      54.100  80.815   7.818 -0.35 -0.01    -0.006 A 
DOCKED: ATOM      7  C3A HEM A1501      54.172  79.751   7.031 -0.36 -0.01    -0.007 A 
DOCKED: ATOM      8  C4A HEM A1501      54.402  78.624   7.883 -0.33 +0.06    +0.079 A 
DOCKED: ATOM      9  CMA HEM A1501      54.063  79.715   5.537 -0.49 +0.03    +0.032 C 
DOCKED: ATOM     10  C1B HEM A1501      54.742  76.200   8.159 -0.37 +0.05    +0.079 A 
DOCKED: ATOM     11  C2B HEM A1501      54.832  74.855   7.605 -0.48 -0.00    -0.003 A 
DOCKED: ATOM     12  C3B HEM A1501      55.060  74.043   8.669 -0.45 +0.01    +0.015 A 
DOCKED: ATOM     13  C4B HEM A1501      55.134  74.892   9.855 -0.37 +0.03    +0.083 A 
DOCKED: ATOM     14  CMB HEM A1501      54.684  74.515   6.147 -0.59 +0.02    +0.033 C 
DOCKED: ATOM     15  C1C HEM A1501      55.448  75.175  12.314 -0.35 +0.03    +0.079 A 
DOCKED: ATOM     16  C2C HEM A1501      55.788  74.660  13.612 -0.43 -0.00    -0.003 A 
DOCKED: ATOM     17  C3C HEM A1501      55.758  75.720  14.460 -0.39 +0.01    +0.015 A 
DOCKED: ATOM     18  C4C HEM A1501      55.382  76.898  13.654 -0.31 +0.03    +0.083 A 
DOCKED: ATOM     19  CMC HEM A1501      56.104  73.203  13.881 -0.55 +0.01    +0.033 C 
DOCKED: ATOM     20  C1D HEM A1501      54.855  79.397  13.353 -0.32 +0.04    +0.079 A 
DOCKED: ATOM     21  C2D HEM A1501      54.687  80.713  13.890 -0.39 -0.00    -0.007 A 
DOCKED: ATOM     22  C3D HEM A1501      54.423  81.527  12.837 -0.33 -0.00    -0.006 A 
DOCKED: ATOM     23  C4D HEM A1501      54.436  80.703  11.644 -0.23 +0.07    +0.079 A 
DOCKED: ATOM     24  CMD HEM A1501      54.787  81.106  15.311 -0.46 +0.01    +0.032 C 
DOCKED: ATOM     25  NA  HEM A1501      54.491  78.995   9.192 -0.18 -0.20    -0.246 N 
DOCKED: ATOM     26  NB  HEM A1501      54.915  76.182   9.523 -0.09 -0.12    -0.246 N 
DOCKED: ATOM     27  NC  HEM A1501      55.238  76.513  12.384 -0.14 -0.11    -0.246 N 
DOCKED: ATOM     28  ND  HEM A1501      54.704  79.417  11.994 -0.13 -0.17    -0.246 N 
DOCKED: ATOM     29 FE   HEM A1501      54.848  77.781  10.795 -0.07 +0.00    +0.000 Fe
DOCKED: ENDROOT
DOCKED: BRANCH   6  30
DOCKED: ATOM     30  CAA HEM A1501      53.884  82.210   7.347 -0.43 +0.06    +0.039 C 
DOCKED: BRANCH  30  31
DOCKED: ATOM     31  CBA HEM A1501      52.414  82.506   7.125 -0.56 +0.16    +0.102 C 
DOCKED: BRANCH  31  32
DOCKED: ATOM     32  CGA HEM A1501      52.147  83.702   6.253 -0.64 +0.36    +0.186 C 
DOCKED: ATOM     33  O1A HEM A1501      52.940  84.671   6.314 -1.22 -1.71    -0.647 OA
DOCKED: ATOM     34  O2A HEM A1501      51.175  83.662   5.472 -1.03 -1.31    -0.647 OA
DOCKED: ENDBRANCH  31  32
DOCKED: ENDBRANCH  30  31
DOCKED: ENDBRANCH   6  30
DOCKED: BRANCH  22  35
DOCKED: ATOM     35  CAD HEM A1501      54.179  82.984  12.955 -0.39 +0.04    +0.039 C 
DOCKED: BRANCH  35  36
DOCKED: ATOM     36  CBD HEM A1501      52.766  83.287  13.453 -0.51 +0.10    +0.102 C 
DOCKED: BRANCH  36  37
DOCKED: ATOM     37  CGD HEM A1501      52.308  84.694  13.116 -0.49 +0.26    +0.186 C 
DOCKED: ATOM     38  O1D HEM A1501      52.913  85.174  12.133 -0.57 -1.39    -0.647 OA
DOCKED: ATOM     39  O2D HEM A1501      51.346  85.301  13.766 -0.64 -0.93    -0.647 OA
DOCKED: ENDBRANCH  36  37
DOCKED: ENDBRANCH  35  36
DOCKED: ENDBRANCH  22  35
DOCKED: BRANCH  17  40
DOCKED: ATOM     40  CAC HEM A1501      56.027  75.740  15.903 -0.55 +0.00    +0.001 C 
DOCKED: ATOM     41  CBC HEM A1501      55.168  76.080  16.876 -0.63 +0.00    +0.000 C 
DOCKED: ENDBRANCH  17  40
DOCKED: BRANCH  12  42
DOCKED: ATOM     42  CAB HEM A1501      55.232  72.574   8.756 -0.56 +0.00    +0.001 C 
DOCKED: ATOM     43  CBB HEM A1501      55.591  71.700   7.837 -0.55 +0.00    +0.000 C 
DOCKED: ENDBRANCH  12  42
DOCKED: TORSDOF 8
DOCKED: TER
DOCKED: ENDMDL
________________________________________________________________________________


	BEGINNING GENETIC ALGORITHM DOCKING 91 of 100
Run: 91 Seed: 1628162480 641381104 [ Run 91 of 100 GA/GALS ]
Beginning LAMARCKIAN GENETIC ALGORITHM (LGA), with a maximum of 2500000 energy evaluations.

Final-Value: -23.116


	FINAL GENETIC ALGORITHM DOCKED STATE
	_______________________________________________


Detailed state:  trans 54.961 79.212 10.801 quatxyzw -0.175536 0.968186 -0.175174 -0.033425 center 54.495 78.699 10.493 ntor 8 -176.9937 -58.0842 -160.8698 -129.9628 -23.6726 -31.2316 128.6107 179.9647
State:	 54.961  79.212  10.801  -0.176  0.969 -0.175 -176.169   -176.99  -58.08 -160.87 -129.96  -23.67  -31.23  128.61  179.96

DOCKED: MODEL       91
DOCKED: USER    Run = 91
DOCKED: USER    DPF = C:/Users/georg/Desktop/fall2024/4-Computational_Biology/Assignment/executables/HEM.dpf
DOCKED: USER  
DOCKED: USER    Estimated Free Energy of Binding    =  -20.28 kcal/mol  [=(1)+(2)+(3)-(4)]
DOCKED: USER    Estimated Inhibition Constant, Ki   =    1.37 fM (femtomolar)  [Temperature = 298.15 K]
DOCKED: USER    
DOCKED: USER    (1) Final Intermolecular Energy     =  -22.66 kcal/mol
DOCKED: USER        vdW + Hbond + desolv Energy     =  -18.53 kcal/mol
DOCKED: USER        Electrostatic Energy            =   -4.13 kcal/mol
DOCKED: USER    (2) Final Total Internal Energy     =   -0.45 kcal/mol
DOCKED: USER    (3) Torsional Free Energy           =   +2.39 kcal/mol
DOCKED: USER    (4) Unbound System's Energy  [=(2)] =   -0.45 kcal/mol
DOCKED: USER    
DOCKED: USER    
DOCKED: USER    NEWDPF move HEM.pdbqt
DOCKED: USER    NEWDPF about 54.495000 78.699000 10.493000
DOCKED: USER    NEWDPF tran0 54.961459 79.211560 10.801034
DOCKED: USER    NEWDPF quaternion0 -0.175536 0.968186 -0.175174 -0.033425
DOCKED: USER    NEWDPF axisangle0 -0.175635 0.968727 -0.175272 -176.169112
DOCKED: USER    NEWDPF quat0 -0.175635 0.968727 -0.175272 -176.169112
DOCKED: USER    NEWDPF dihe0 -176.99 -58.08 -160.87 -129.96 -23.67 -31.23 128.61 179.96 
DOCKED: USER  keepresnum = 1 
DOCKED: USER  
DOCKED: REMARK  8 active torsions:
DOCKED: REMARK  status: ('A' for Active; 'I' for Inactive)
DOCKED: REMARK    1  A    between atoms: C2A_3624  and  CAA_3628 
DOCKED: REMARK    2  A    between atoms: CAA_3628  and  CBA_3629 
DOCKED: REMARK    3  A    between atoms: CBA_3629  and  CGA_3630 
DOCKED: REMARK    4  A    between atoms: C3B_3635  and  CAB_3638 
DOCKED: REMARK    5  A    between atoms: C3C_3642  and  CAC_3645 
DOCKED: REMARK    6  A    between atoms: C3D_3649  and  CAD_3652 
DOCKED: REMARK    7  A    between atoms: CAD_3652  and  CBD_3653 
DOCKED: REMARK    8  A    between atoms: CBD_3653  and  CGD_3654 
DOCKED: USER                              x       y       z     vdW  Elec       q    Type
DOCKED: USER                           _______ _______ _______ _____ _____    ______ ____
DOCKED: ROOT
DOCKED: ATOM      1  CHA HEM A1501      54.207  81.415  10.369 -0.29 +0.04    +0.038 A 
DOCKED: ATOM      2  CHB HEM A1501      54.771  77.494   7.639 -0.35 +0.03    +0.038 A 
DOCKED: ATOM      3  CHC HEM A1501      55.504  74.821  11.588 -0.39 +0.01    +0.038 A 
DOCKED: ATOM      4  CHD HEM A1501      55.005  78.760  14.318 -0.39 +0.02    +0.038 A 
DOCKED: ATOM      5  C1A HEM A1501      54.324  80.582   9.261 -0.26 +0.08    +0.079 A 
DOCKED: ATOM      6  C2A HEM A1501      54.217  80.974   7.851 -0.34 -0.01    -0.006 A 
DOCKED: ATOM      7  C3A HEM A1501      54.373  79.876   7.125 -0.35 -0.01    -0.007 A 
DOCKED: ATOM      8  C4A HEM A1501      54.588  78.802   8.046 -0.30 +0.06    +0.079 A 
DOCKED: ATOM      9  CMA HEM A1501      54.357  79.763   5.631 -0.48 +0.03    +0.032 C 
DOCKED: ATOM     10  C1B HEM A1501      54.992  76.408   8.466 -0.31 +0.04    +0.079 A 
DOCKED: ATOM     11  C2B HEM A1501      55.160  75.042   7.988 -0.46 -0.00    -0.003 A 
DOCKED: ATOM     12  C3B HEM A1501      55.351  74.292   9.104 -0.44 +0.01    +0.015 A 
DOCKED: ATOM     13  C4B HEM A1501      55.323  75.200  10.247 -0.33 +0.03    +0.083 A 
DOCKED: ATOM     14  CMB HEM A1501      55.114  74.625   6.543 -0.58 +0.02    +0.033 C 
DOCKED: ATOM     15  C1C HEM A1501      55.476  75.615  12.703 -0.33 +0.03    +0.079 A 
DOCKED: ATOM     16  C2C HEM A1501      55.753  75.178  14.043 -0.40 -0.00    -0.003 A 
DOCKED: ATOM     17  C3C HEM A1501      55.635  76.276  14.833 -0.41 +0.01    +0.015 A 
DOCKED: ATOM     18  C4C HEM A1501      55.270  77.398  13.946 -0.34 +0.03    +0.083 A 
DOCKED: ATOM     19  CMC HEM A1501      56.101  73.748  14.405 -0.54 +0.01    +0.033 C 
DOCKED: ATOM     20  C1D HEM A1501      54.678  79.859  13.486 -0.34 +0.05    +0.079 A 
DOCKED: ATOM     21  C2D HEM A1501      54.434  81.192  13.945 -0.40 -0.00    -0.007 A 
DOCKED: ATOM     22  C3D HEM A1501      54.208  81.944  12.837 -0.35 -0.01    -0.006 A 
DOCKED: ATOM     23  C4D HEM A1501      54.322  81.063  11.691 -0.25 +0.07    +0.079 A 
DOCKED: ATOM     24  CMD HEM A1501      54.433  81.658  15.346 -0.47 +0.02    +0.032 C 
DOCKED: ATOM     25  NA  HEM A1501      54.584  79.239   9.337 -0.17 -0.20    -0.246 N 
DOCKED: ATOM     26  NB  HEM A1501      55.081  76.464   9.837 +0.03 -0.12    -0.246 N 
DOCKED: ATOM     27  NC  HEM A1501      55.217  76.946  12.691 -0.16 -0.11    -0.246 N 
DOCKED: ATOM     28  ND  HEM A1501      54.611  79.806  12.122 -0.15 -0.17    -0.246 N 
DOCKED: ATOM     29 FE   HEM A1501      54.883  78.120  11.018 -0.07 +0.00    +0.000 Fe
DOCKED: ENDROOT
DOCKED: BRANCH   6  30
DOCKED: ATOM     30  CAA HEM A1501      53.984  82.335   7.297 -0.42 +0.06    +0.039 C 
DOCKED: BRANCH  30  31
DOCKED: ATOM     31  CBA HEM A1501      52.907  82.329   6.230 -0.56 +0.14    +0.102 C 
DOCKED: BRANCH  31  32
DOCKED: ATOM     32  CGA HEM A1501      52.164  83.630   6.092 -0.64 +0.35    +0.186 C 
DOCKED: ATOM     33  O1A HEM A1501      52.701  84.671   6.535 -1.09 -1.72    -0.647 OA
DOCKED: ATOM     34  O2A HEM A1501      51.064  83.625   5.502 -1.02 -1.34    -0.647 OA
DOCKED: ENDBRANCH  31  32
DOCKED: ENDBRANCH  30  31
DOCKED: ENDBRANCH   6  30
DOCKED: BRANCH  22  35
DOCKED: ATOM     35  CAD HEM A1501      53.908  83.395  12.865 -0.44 +0.04    +0.039 C 
DOCKED: BRANCH  35  36
DOCKED: ATOM     36  CBD HEM A1501      52.404  83.668  12.826 -0.50 +0.12    +0.102 C 
DOCKED: BRANCH  36  37
DOCKED: ATOM     37  CGD HEM A1501      52.017  84.955  13.530 -0.50 +0.26    +0.186 C 
DOCKED: ATOM     38  O1D HEM A1501      53.004  85.683  13.778 -0.43 -1.11    -0.647 OA
DOCKED: ATOM     39  O2D HEM A1501      50.774  85.273  13.793 -0.93 -0.88    -0.647 OA
DOCKED: ENDBRANCH  36  37
DOCKED: ENDBRANCH  35  36
DOCKED: ENDBRANCH  22  35
DOCKED: BRANCH  17  40
DOCKED: ATOM     40  CAC HEM A1501      55.814  76.377  16.286 -0.59 +0.00    +0.001 C 
DOCKED: ATOM     41  CBC HEM A1501      55.149  75.689  17.227 -0.67 +0.00    +0.000 C 
DOCKED: ENDBRANCH  17  40
DOCKED: BRANCH  12  42
DOCKED: ATOM     42  CAB HEM A1501      55.566  72.836   9.276 -0.54 +0.00    +0.001 C 
DOCKED: ATOM     43  CBB HEM A1501      54.700  71.843   9.310 -0.57 +0.00    +0.000 C 
DOCKED: ENDBRANCH  12  42
DOCKED: TORSDOF 8
DOCKED: TER
DOCKED: ENDMDL
________________________________________________________________________________


	BEGINNING GENETIC ALGORITHM DOCKING 92 of 100
Run: 92 Seed: 1249648378 1696146016 [ Run 92 of 100 GA/GALS ]
Beginning LAMARCKIAN GENETIC ALGORITHM (LGA), with a maximum of 2500000 energy evaluations.

Final-Value: -23.524


	FINAL GENETIC ALGORITHM DOCKED STATE
	_______________________________________________


Detailed state:  trans 54.340 78.763 10.610 quatxyzw -0.009609 0.020595 -0.017917 0.999581 center 54.495 78.699 10.493 ntor 8 10.3935 -31.7929 8.8554 47.3437 17.6080 -14.0647 13.7381 -33.0876
State:	 54.340  78.763  10.610  -0.332  0.712 -0.619  3.317     10.39  -31.79    8.86   47.34   17.61  -14.06   13.74  -33.09

DOCKED: MODEL       92
DOCKED: USER    Run = 92
DOCKED: USER    DPF = C:/Users/georg/Desktop/fall2024/4-Computational_Biology/Assignment/executables/HEM.dpf
DOCKED: USER  
DOCKED: USER    Estimated Free Energy of Binding    =  -20.73 kcal/mol  [=(1)+(2)+(3)-(4)]
DOCKED: USER    Estimated Inhibition Constant, Ki   =  638.63 aM (attomolar)  [Temperature = 298.15 K]
DOCKED: USER    
DOCKED: USER    (1) Final Intermolecular Energy     =  -23.12 kcal/mol
DOCKED: USER        vdW + Hbond + desolv Energy     =  -18.80 kcal/mol
DOCKED: USER        Electrostatic Energy            =   -4.32 kcal/mol
DOCKED: USER    (2) Final Total Internal Energy     =   -0.41 kcal/mol
DOCKED: USER    (3) Torsional Free Energy           =   +2.39 kcal/mol
DOCKED: USER    (4) Unbound System's Energy  [=(2)] =   -0.41 kcal/mol
DOCKED: USER    
DOCKED: USER    
DOCKED: USER    NEWDPF move HEM.pdbqt
DOCKED: USER    NEWDPF about 54.495000 78.699000 10.493000
DOCKED: USER    NEWDPF tran0 54.339529 78.763062 10.610224
DOCKED: USER    NEWDPF quaternion0 -0.009609 0.020595 -0.017917 0.999581
DOCKED: USER    NEWDPF axisangle0 -0.332032 0.711661 -0.619107 3.316666
DOCKED: USER    NEWDPF quat0 -0.332032 0.711661 -0.619107 3.316666
DOCKED: USER    NEWDPF dihe0 10.39 -31.79 8.86 47.34 17.61 -14.06 13.74 -33.09 
DOCKED: USER  keepresnum = 1 
DOCKED: USER  
DOCKED: REMARK  8 active torsions:
DOCKED: REMARK  status: ('A' for Active; 'I' for Inactive)
DOCKED: REMARK    1  A    between atoms: C2A_3624  and  CAA_3628 
DOCKED: REMARK    2  A    between atoms: CAA_3628  and  CBA_3629 
DOCKED: REMARK    3  A    between atoms: CBA_3629  and  CGA_3630 
DOCKED: REMARK    4  A    between atoms: C3B_3635  and  CAB_3638 
DOCKED: REMARK    5  A    between atoms: C3C_3642  and  CAC_3645 
DOCKED: REMARK    6  A    between atoms: C3D_3649  and  CAD_3652 
DOCKED: REMARK    7  A    between atoms: CAD_3652  and  CBD_3653 
DOCKED: REMARK    8  A    between atoms: CBD_3653  and  CGD_3654 
DOCKED: USER                              x       y       z     vdW  Elec       q    Type
DOCKED: USER                           _______ _______ _______ _____ _____    ______ ____
DOCKED: ROOT
DOCKED: ATOM      1  CHA HEM A1501      54.205  81.099  10.239 -0.27 +0.04    +0.038 A 
DOCKED: ATOM      2  CHB HEM A1501      55.000  78.388  14.132 -0.40 +0.02    +0.038 A 
DOCKED: ATOM      3  CHC HEM A1501      55.495  74.483  11.342 -0.41 +0.01    +0.038 A 
DOCKED: ATOM      4  CHD HEM A1501      54.634  77.186   7.448 -0.38 +0.03    +0.038 A 
DOCKED: ATOM      5  C1A HEM A1501      54.351  80.699  11.563 -0.22 +0.07    +0.079 A 
DOCKED: ATOM      6  C2A HEM A1501      54.239  81.547  12.755 -0.35 -0.00    -0.006 A 
DOCKED: ATOM      7  C3A HEM A1501      54.465  80.776  13.809 -0.41 -0.00    -0.007 A 
DOCKED: ATOM      8  C4A HEM A1501      54.706  79.457  13.309 -0.32 +0.05    +0.079 A 
DOCKED: ATOM      9  CMA HEM A1501      54.450  81.179  15.252 -0.46 +0.01    +0.032 C 
DOCKED: ATOM     10  C1B HEM A1501      55.236  77.088  13.725 -0.33 +0.03    +0.079 A 
DOCKED: ATOM     11  C2B HEM A1501      55.561  75.996  14.634 -0.39 -0.00    -0.003 A 
DOCKED: ATOM     12  C3B HEM A1501      55.715  74.903  13.842 -0.40 +0.01    +0.015 A 
DOCKED: ATOM     13  C4B HEM A1501      55.460  75.324  12.467 -0.34 +0.03    +0.083 A 
DOCKED: ATOM     14  CMB HEM A1501      55.690  76.130  16.127 -0.55 +0.01    +0.033 C 
DOCKED: ATOM     15  C1C HEM A1501      55.282  74.815  10.031 -0.38 +0.03    +0.079 A 
DOCKED: ATOM     16  C2C HEM A1501      55.250  73.888   8.933 -0.47 -0.00    -0.003 A 
DOCKED: ATOM     17  C3C HEM A1501      54.992  74.625   7.822 -0.46 +0.01    +0.015 A 
DOCKED: ATOM     18  C4C HEM A1501      54.874  76.028   8.263 -0.36 +0.05    +0.083 A 
DOCKED: ATOM     19  CMC HEM A1501      55.473  72.397   9.086 -0.53 +0.01    +0.033 C 
DOCKED: ATOM     20  C1D HEM A1501      54.491  78.537   7.847 -0.32 +0.06    +0.079 A 
DOCKED: ATOM     21  C2D HEM A1501      54.247  79.635   6.961 -0.36 -0.01    -0.007 A 
DOCKED: ATOM     22  C3D HEM A1501      54.126  80.739   7.742 -0.35 -0.01    -0.006 A 
DOCKED: ATOM     23  C4D HEM A1501      54.292  80.311   9.118 -0.26 +0.08    +0.079 A 
DOCKED: ATOM     24  CMD HEM A1501      54.143  79.575   5.489 -0.48 +0.03    +0.032 C 
DOCKED: ATOM     25  NA  HEM A1501      54.609  79.411  11.950 -0.10 -0.17    -0.246 N 
DOCKED: ATOM     26  NB  HEM A1501      55.197  76.648  12.423 -0.13 -0.11    -0.246 N 
DOCKED: ATOM     27  NC  HEM A1501      55.029  76.071   9.588 -0.14 -0.12    -0.246 N 
DOCKED: ATOM     28  ND  HEM A1501      54.508  78.969   9.144 -0.18 -0.20    -0.246 N 
DOCKED: ATOM     29 FE   HEM A1501      54.826  77.769  10.754 -0.07 +0.00    +0.000 Fe
DOCKED: ENDROOT
DOCKED: BRANCH   6  30
DOCKED: ATOM     30  CAA HEM A1501      53.925  83.001  12.815 -0.43 +0.04    +0.039 C 
DOCKED: BRANCH  30  31
DOCKED: ATOM     31  CBA HEM A1501      52.570  83.256  13.445 -0.52 +0.10    +0.102 C 
DOCKED: BRANCH  31  32
DOCKED: ATOM     32  CGA HEM A1501      52.049  84.654  13.249 -0.51 +0.25    +0.186 C 
DOCKED: ATOM     33  O1A HEM A1501      51.034  85.006  13.893 -0.59 -0.85    -0.647 OA
DOCKED: ATOM     34  O2A HEM A1501      52.677  85.419  12.489 -0.51 -1.39    -0.647 OA
DOCKED: ENDBRANCH  31  32
DOCKED: ENDBRANCH  30  31
DOCKED: ENDBRANCH   6  30
DOCKED: BRANCH  22  35
DOCKED: ATOM     35  CAD HEM A1501      53.870  82.101   7.218 -0.44 +0.05    +0.039 C 
DOCKED: BRANCH  35  36
DOCKED: ATOM     36  CBD HEM A1501      52.672  82.133   6.270 -0.57 +0.14    +0.102 C 
DOCKED: BRANCH  36  37
DOCKED: ATOM     37  CGD HEM A1501      52.208  83.542   5.948 -0.65 +0.33    +0.186 C 
DOCKED: ATOM     38  O1D HEM A1501      51.111  83.562   5.349 -1.09 -1.30    -0.647 OA
DOCKED: ATOM     39  O2D HEM A1501      52.876  84.609   6.313 -1.19 -1.66    -0.647 OA
DOCKED: ENDBRANCH  36  37
DOCKED: ENDBRANCH  35  36
DOCKED: ENDBRANCH  22  35
DOCKED: BRANCH  17  40
DOCKED: ATOM     40  CAC HEM A1501      54.858  74.164   6.435 -0.61 +0.00    +0.001 C 
DOCKED: ATOM     41  CBC HEM A1501      53.855  74.445   5.589 -0.67 +0.00    +0.000 C 
DOCKED: ENDBRANCH  17  40
DOCKED: BRANCH  12  42
DOCKED: ATOM     42  CAB HEM A1501      56.062  73.501  14.171 -0.58 +0.00    +0.001 C 
DOCKED: ATOM     43  CBB HEM A1501      57.096  73.007  14.822 -0.64 +0.00    +0.000 C 
DOCKED: ENDBRANCH  12  42
DOCKED: TORSDOF 8
DOCKED: TER
DOCKED: ENDMDL
________________________________________________________________________________


	BEGINNING GENETIC ALGORITHM DOCKING 93 of 100
Run: 93 Seed: 173942776 237358990 [ Run 93 of 100 GA/GALS ]
Beginning LAMARCKIAN GENETIC ALGORITHM (LGA), with a maximum of 2500000 energy evaluations.

Final-Value: -23.119


	FINAL GENETIC ALGORITHM DOCKED STATE
	_______________________________________________


Detailed state:  trans 54.914 78.963 10.363 quatxyzw 0.167474 -0.967801 0.187747 0.007981 center 54.495 78.699 10.493 ntor 8 175.7582 38.2772 145.8141 -124.5405 0.9992 -42.4127 174.9650 180.0000
State:	 54.914  78.963  10.363   0.167 -0.968  0.188 179.085    175.76   38.28  145.81 -124.54    1.00  -42.41  174.97  180.00

DOCKED: MODEL       93
DOCKED: USER    Run = 93
DOCKED: USER    DPF = C:/Users/georg/Desktop/fall2024/4-Computational_Biology/Assignment/executables/HEM.dpf
DOCKED: USER  
DOCKED: USER    Estimated Free Energy of Binding    =  -20.14 kcal/mol  [=(1)+(2)+(3)-(4)]
DOCKED: USER    Estimated Inhibition Constant, Ki   =    1.74 fM (femtomolar)  [Temperature = 298.15 K]
DOCKED: USER    
DOCKED: USER    (1) Final Intermolecular Energy     =  -22.52 kcal/mol
DOCKED: USER        vdW + Hbond + desolv Energy     =  -18.42 kcal/mol
DOCKED: USER        Electrostatic Energy            =   -4.11 kcal/mol
DOCKED: USER    (2) Final Total Internal Energy     =   -0.60 kcal/mol
DOCKED: USER    (3) Torsional Free Energy           =   +2.39 kcal/mol
DOCKED: USER    (4) Unbound System's Energy  [=(2)] =   -0.60 kcal/mol
DOCKED: USER    
DOCKED: USER    
DOCKED: USER    NEWDPF move HEM.pdbqt
DOCKED: USER    NEWDPF about 54.495000 78.699000 10.493000
DOCKED: USER    NEWDPF tran0 54.913954 78.962946 10.362803
DOCKED: USER    NEWDPF quaternion0 0.167474 -0.967801 0.187747 0.007981
DOCKED: USER    NEWDPF axisangle0 0.167479 -0.967832 0.187753 179.085388
DOCKED: USER    NEWDPF quat0 0.167479 -0.967832 0.187753 179.085388
DOCKED: USER    NEWDPF dihe0 175.76 38.28 145.81 -124.54 1.00 -42.41 174.97 180.00 
DOCKED: USER  keepresnum = 1 
DOCKED: USER  
DOCKED: REMARK  8 active torsions:
DOCKED: REMARK  status: ('A' for Active; 'I' for Inactive)
DOCKED: REMARK    1  A    between atoms: C2A_3624  and  CAA_3628 
DOCKED: REMARK    2  A    between atoms: CAA_3628  and  CBA_3629 
DOCKED: REMARK    3  A    between atoms: CBA_3629  and  CGA_3630 
DOCKED: REMARK    4  A    between atoms: C3B_3635  and  CAB_3638 
DOCKED: REMARK    5  A    between atoms: C3C_3642  and  CAC_3645 
DOCKED: REMARK    6  A    between atoms: C3D_3649  and  CAD_3652 
DOCKED: REMARK    7  A    between atoms: CAD_3652  and  CBD_3653 
DOCKED: REMARK    8  A    between atoms: CBD_3653  and  CGD_3654 
DOCKED: USER                              x       y       z     vdW  Elec       q    Type
DOCKED: USER                           _______ _______ _______ _____ _____    ______ ____
DOCKED: ROOT
DOCKED: ATOM      1  CHA HEM A1501      54.196  81.170   9.889 -0.29 +0.04    +0.038 A 
DOCKED: ATOM      2  CHB HEM A1501      54.548  77.150   7.271 -0.40 +0.03    +0.038 A 
DOCKED: ATOM      3  CHC HEM A1501      55.382  74.588  11.273 -0.41 +0.01    +0.038 A 
DOCKED: ATOM      4  CHD HEM A1501      55.095  78.624  13.888 -0.37 +0.02    +0.038 A 
DOCKED: ATOM      5  C1A HEM A1501      54.245  80.299   8.805 -0.28 +0.08    +0.079 A 
DOCKED: ATOM      6  C2A HEM A1501      54.088  80.648   7.389 -0.36 -0.01    -0.006 A 
DOCKED: ATOM      7  C3A HEM A1501      54.187  79.523   6.695 -0.38 -0.01    -0.007 A 
DOCKED: ATOM      8  C4A HEM A1501      54.414  78.474   7.641 -0.33 +0.06    +0.079 A 
DOCKED: ATOM      9  CMA HEM A1501      54.104  79.362   5.207 -0.50 +0.03    +0.032 C 
DOCKED: ATOM     10  C1B HEM A1501      54.776  76.086   8.124 -0.37 +0.04    +0.079 A 
DOCKED: ATOM     11  C2B HEM A1501      54.891  74.701   7.684 -0.48 -0.00    -0.003 A 
DOCKED: ATOM     12  C3B HEM A1501      55.110  73.982   8.817 -0.46 +0.01    +0.015 A 
DOCKED: ATOM     13  C4B HEM A1501      55.153  74.928   9.928 -0.37 +0.03    +0.083 A 
DOCKED: ATOM     14  CMB HEM A1501      54.773  74.239   6.258 -0.59 +0.02    +0.033 C 
DOCKED: ATOM     15  C1C HEM A1501      55.420  75.418  12.360 -0.33 +0.03    +0.079 A 
DOCKED: ATOM     16  C2C HEM A1501      55.743  75.017  13.702 -0.41 -0.00    -0.003 A 
DOCKED: ATOM     17  C3C HEM A1501      55.685  76.143  14.459 -0.39 +0.01    +0.015 A 
DOCKED: ATOM     18  C4C HEM A1501      55.311  77.245  13.551 -0.31 +0.04    +0.083 A 
DOCKED: ATOM     19  CMC HEM A1501      56.070  73.591  14.097 -0.54 +0.01    +0.033 C 
DOCKED: ATOM     20  C1D HEM A1501      54.761  79.703  13.034 -0.29 +0.05    +0.079 A 
DOCKED: ATOM     21  C2D HEM A1501      54.569  81.057  13.458 -0.36 -0.00    -0.007 A 
DOCKED: ATOM     22  C3D HEM A1501      54.315  81.778  12.336 -0.32 -0.01    -0.006 A 
DOCKED: ATOM     23  C4D HEM A1501      54.358  80.858  11.216 -0.22 +0.07    +0.079 A 
DOCKED: ATOM     24  CMD HEM A1501      54.639  81.568  14.842 -0.46 +0.02    +0.032 C 
DOCKED: ATOM     25  NA  HEM A1501      54.476  78.953   8.916 -0.20 -0.20    -0.246 N 
DOCKED: ATOM     26  NB  HEM A1501      54.926  76.183   9.487 -0.11 -0.12    -0.246 N 
DOCKED: ATOM     27  NC  HEM A1501      55.194  76.754  12.315 -0.09 -0.11    -0.246 N 
DOCKED: ATOM     28  ND  HEM A1501      54.634  79.609  11.677 -0.11 -0.18    -0.246 N 
DOCKED: ATOM     29 FE   HEM A1501      54.818  77.881  10.620 -0.07 +0.00    +0.000 Fe
DOCKED: ENDROOT
DOCKED: BRANCH   6  30
DOCKED: ATOM     30  CAA HEM A1501      53.866  81.996   6.800 -0.46 +0.05    +0.039 C 
DOCKED: BRANCH  30  31
DOCKED: ATOM     31  CBA HEM A1501      52.393  82.356   6.763 -0.58 +0.16    +0.102 C 
DOCKED: BRANCH  31  32
DOCKED: ATOM     32  CGA HEM A1501      52.106  83.737   6.243 -0.64 +0.36    +0.186 C 
DOCKED: ATOM     33  O1A HEM A1501      52.937  84.645   6.475 -1.16 -1.75    -0.647 OA
DOCKED: ATOM     34  O2A HEM A1501      51.074  83.911   5.562 -1.00 -1.36    -0.647 OA
DOCKED: ENDBRANCH  31  32
DOCKED: ENDBRANCH  30  31
DOCKED: ENDBRANCH   6  30
DOCKED: BRANCH  22  35
DOCKED: ATOM     35  CAD HEM A1501      54.052  83.237  12.328 -0.40 +0.05    +0.039 C 
DOCKED: BRANCH  35  36
DOCKED: ATOM     36  CBD HEM A1501      52.555  83.547  12.344 -0.46 +0.13    +0.102 C 
DOCKED: BRANCH  36  37
DOCKED: ATOM     37  CGD HEM A1501      52.202  84.716  13.244 -0.50 +0.26    +0.186 C 
DOCKED: ATOM     38  O1D HEM A1501      53.190  85.435  13.510 -0.56 -1.11    -0.647 OA
DOCKED: ATOM     39  O2D HEM A1501      50.978  84.956  13.647 -0.56 -0.84    -0.647 OA
DOCKED: ENDBRANCH  36  37
DOCKED: ENDBRANCH  35  36
DOCKED: ENDBRANCH  22  35
DOCKED: BRANCH  17  40
DOCKED: ATOM     40  CAC HEM A1501      55.929  76.286  15.899 -0.55 +0.00    +0.001 C 
DOCKED: ATOM     41  CBC HEM A1501      55.202  75.752  16.893 -0.64 +0.00    +0.000 C 
DOCKED: ENDBRANCH  17  40
DOCKED: BRANCH  12  42
DOCKED: ATOM     42  CAB HEM A1501      55.296  72.528   9.028 -0.56 +0.00    +0.001 C 
DOCKED: ATOM     43  CBB HEM A1501      55.550  71.565   8.164 -0.56 +0.00    +0.000 C 
DOCKED: ENDBRANCH  12  42
DOCKED: TORSDOF 8
DOCKED: TER
DOCKED: ENDMDL
________________________________________________________________________________


	BEGINNING GENETIC ALGORITHM DOCKING 94 of 100
Run: 94 Seed: 661475321 507301177 [ Run 94 of 100 GA/GALS ]
Beginning LAMARCKIAN GENETIC ALGORITHM (LGA), with a maximum of 2500000 energy evaluations.

Final-Value: -23.588


	FINAL GENETIC ALGORITHM DOCKED STATE
	_______________________________________________


Detailed state:  trans 54.935 79.229 10.898 quatxyzw 0.193472 -0.964903 0.174852 0.030943 center 54.495 78.699 10.493 ntor 8 -180.0000 -51.1205 155.9543 -144.3025 12.7433 -20.8191 153.0518 -171.1267
State:	 54.935  79.229  10.898   0.194 -0.965  0.175 176.454   -180.00  -51.12  155.95 -144.30   12.74  -20.82  153.05 -171.13

DOCKED: MODEL       94
DOCKED: USER    Run = 94
DOCKED: USER    DPF = C:/Users/georg/Desktop/fall2024/4-Computational_Biology/Assignment/executables/HEM.dpf
DOCKED: USER  
DOCKED: USER    Estimated Free Energy of Binding    =  -20.61 kcal/mol  [=(1)+(2)+(3)-(4)]
DOCKED: USER    Estimated Inhibition Constant, Ki   =  784.81 aM (attomolar)  [Temperature = 298.15 K]
DOCKED: USER    
DOCKED: USER    (1) Final Intermolecular Energy     =  -22.99 kcal/mol
DOCKED: USER        vdW + Hbond + desolv Energy     =  -18.98 kcal/mol
DOCKED: USER        Electrostatic Energy            =   -4.02 kcal/mol
DOCKED: USER    (2) Final Total Internal Energy     =   -0.59 kcal/mol
DOCKED: USER    (3) Torsional Free Energy           =   +2.39 kcal/mol
DOCKED: USER    (4) Unbound System's Energy  [=(2)] =   -0.59 kcal/mol
DOCKED: USER    
DOCKED: USER    
DOCKED: USER    NEWDPF move HEM.pdbqt
DOCKED: USER    NEWDPF about 54.495000 78.699000 10.493000
DOCKED: USER    NEWDPF tran0 54.934921 79.228614 10.898276
DOCKED: USER    NEWDPF quaternion0 0.193472 -0.964903 0.174852 0.030943
DOCKED: USER    NEWDPF axisangle0 0.193565 -0.965365 0.174936 176.453663
DOCKED: USER    NEWDPF quat0 0.193565 -0.965365 0.174936 176.453663
DOCKED: USER    NEWDPF dihe0 -180.00 -51.12 155.95 -144.30 12.74 -20.82 153.05 -171.13 
DOCKED: USER  keepresnum = 1 
DOCKED: USER  
DOCKED: REMARK  8 active torsions:
DOCKED: REMARK  status: ('A' for Active; 'I' for Inactive)
DOCKED: REMARK    1  A    between atoms: C2A_3624  and  CAA_3628 
DOCKED: REMARK    2  A    between atoms: CAA_3628  and  CBA_3629 
DOCKED: REMARK    3  A    between atoms: CBA_3629  and  CGA_3630 
DOCKED: REMARK    4  A    between atoms: C3B_3635  and  CAB_3638 
DOCKED: REMARK    5  A    between atoms: C3C_3642  and  CAC_3645 
DOCKED: REMARK    6  A    between atoms: C3D_3649  and  CAD_3652 
DOCKED: REMARK    7  A    between atoms: CAD_3652  and  CBD_3653 
DOCKED: REMARK    8  A    between atoms: CBD_3653  and  CGD_3654 
DOCKED: USER                              x       y       z     vdW  Elec       q    Type
DOCKED: USER                           _______ _______ _______ _____ _____    ______ ____
DOCKED: ROOT
DOCKED: ATOM      1  CHA HEM A1501      54.099  81.403  10.469 -0.29 +0.04    +0.038 A 
DOCKED: ATOM      2  CHB HEM A1501      54.770  77.497   7.743 -0.35 +0.03    +0.038 A 
DOCKED: ATOM      3  CHC HEM A1501      55.640  74.862  11.690 -0.39 +0.01    +0.038 A 
DOCKED: ATOM      4  CHD HEM A1501      55.033  78.788  14.416 -0.38 +0.01    +0.038 A 
DOCKED: ATOM      5  C1A HEM A1501      54.233  80.572   9.362 -0.26 +0.08    +0.079 A 
DOCKED: ATOM      6  C2A HEM A1501      54.097  80.955   7.953 -0.35 -0.01    -0.006 A 
DOCKED: ATOM      7  C3A HEM A1501      54.283  79.862   7.228 -0.35 -0.01    -0.007 A 
DOCKED: ATOM      8  C4A HEM A1501      54.546  78.798   8.148 -0.30 +0.06    +0.079 A 
DOCKED: ATOM      9  CMA HEM A1501      54.255  79.744   5.734 -0.47 +0.03    +0.032 C 
DOCKED: ATOM     10  C1B HEM A1501      55.038  76.422   8.570 -0.31 +0.04    +0.079 A 
DOCKED: ATOM     11  C2B HEM A1501      55.249  75.060   8.093 -0.45 -0.00    -0.003 A 
DOCKED: ATOM     12  C3B HEM A1501      55.478  74.321   9.209 -0.44 +0.01    +0.015 A 
DOCKED: ATOM     13  C4B HEM A1501      55.430  75.231  10.350 -0.34 +0.03    +0.083 A 
DOCKED: ATOM     14  CMB HEM A1501      55.201  74.638   6.650 -0.57 +0.02    +0.033 C 
DOCKED: ATOM     15  C1C HEM A1501      55.596  75.658  12.803 -0.33 +0.03    +0.079 A 
DOCKED: ATOM     16  C2C HEM A1501      55.903  75.234  14.141 -0.41 -0.00    -0.003 A 
DOCKED: ATOM     17  C3C HEM A1501      55.754  76.330  14.929 -0.41 +0.01    +0.015 A 
DOCKED: ATOM     18  C4C HEM A1501      55.341  77.436  14.044 -0.34 +0.03    +0.083 A 
DOCKED: ATOM     19  CMC HEM A1501      56.304  73.819  14.503 -0.55 +0.01    +0.033 C 
DOCKED: ATOM     20  C1D HEM A1501      54.659  79.873  13.585 -0.35 +0.05    +0.079 A 
DOCKED: ATOM     21  C2D HEM A1501      54.373  81.199  14.043 -0.41 -0.00    -0.007 A 
DOCKED: ATOM     22  C3D HEM A1501      54.109  81.938  12.936 -0.37 -0.00    -0.006 A 
DOCKED: ATOM     23  C4D HEM A1501      54.241  81.059  11.791 -0.26 +0.07    +0.079 A 
DOCKED: ATOM     24  CMD HEM A1501      54.371  81.668  15.443 -0.45 +0.01    +0.032 C 
DOCKED: ATOM     25  NA  HEM A1501      54.541  79.239   9.439 -0.17 -0.20    -0.246 N 
DOCKED: ATOM     26  NB  HEM A1501      55.141  76.484   9.939 -0.00 -0.12    -0.246 N 
DOCKED: ATOM     27  NC  HEM A1501      55.291  76.979  12.791 -0.17 -0.11    -0.246 N 
DOCKED: ATOM     28  ND  HEM A1501      54.578  79.814  12.222 -0.16 -0.17    -0.246 N 
DOCKED: ATOM     29 FE   HEM A1501      54.897  78.135  11.119 -0.07 +0.00    +0.000 Fe
DOCKED: ENDROOT
DOCKED: BRANCH   6  30
DOCKED: ATOM     30  CAA HEM A1501      53.810  82.306   7.398 -0.43 +0.06    +0.039 C 
DOCKED: BRANCH  30  31
DOCKED: ATOM     31  CBA HEM A1501      52.407  82.393   6.830 -0.58 +0.16    +0.102 C 
DOCKED: BRANCH  31  32
DOCKED: ATOM     32  CGA HEM A1501      52.123  83.660   6.070 -0.64 +0.35    +0.186 C 
DOCKED: ATOM     33  O1A HEM A1501      52.822  84.670   6.316 -1.17 -1.69    -0.647 OA
DOCKED: ATOM     34  O2A HEM A1501      51.235  83.639   5.194 -1.08 -1.25    -0.647 OA
DOCKED: ENDBRANCH  31  32
DOCKED: ENDBRANCH  30  31
DOCKED: ENDBRANCH   6  30
DOCKED: BRANCH  22  35
DOCKED: ATOM     35  CAD HEM A1501      53.758  83.378  12.964 -0.46 +0.04    +0.039 C 
DOCKED: BRANCH  35  36
DOCKED: ATOM     36  CBD HEM A1501      52.258  83.597  13.161 -0.52 +0.11    +0.102 C 
DOCKED: BRANCH  36  37
DOCKED: ATOM     37  CGD HEM A1501      51.921  84.996  13.642 -0.50 +0.26    +0.186 C 
DOCKED: ATOM     38  O1D HEM A1501      52.938  85.705  13.809 -0.46 -1.11    -0.647 OA
DOCKED: ATOM     39  O2D HEM A1501      50.690  85.411  13.808 -1.11 -0.90    -0.647 OA
DOCKED: ENDBRANCH  36  37
DOCKED: ENDBRANCH  35  36
DOCKED: ENDBRANCH  22  35
DOCKED: BRANCH  17  40
DOCKED: ATOM     40  CAC HEM A1501      55.946  76.440  16.380 -0.59 +0.00    +0.001 C 
DOCKED: ATOM     41  CBC HEM A1501      55.277  75.773  17.332 -0.69 +0.00    +0.000 C 
DOCKED: ENDBRANCH  17  40
DOCKED: BRANCH  12  42
DOCKED: ATOM     42  CAB HEM A1501      55.745  72.874   9.382 -0.46 +0.00    +0.001 C 
DOCKED: ATOM     43  CBB HEM A1501      54.932  71.840   9.308 -0.59 +0.00    +0.000 C 
DOCKED: ENDBRANCH  12  42
DOCKED: TORSDOF 8
DOCKED: TER
DOCKED: ENDMDL
________________________________________________________________________________


	BEGINNING GENETIC ALGORITHM DOCKING 95 of 100
Run: 95 Seed: 865486093 351419544 [ Run 95 of 100 GA/GALS ]
Beginning LAMARCKIAN GENETIC ALGORITHM (LGA), with a maximum of 2500000 energy evaluations.

Final-Value: -22.929


	FINAL GENETIC ALGORITHM DOCKED STATE
	_______________________________________________


Detailed state:  trans 54.299 78.621 10.691 quatxyzw 0.006879 -0.013893 0.021613 -0.999646 center 54.495 78.699 10.493 ntor 8 -175.4490 -38.3095 -153.3531 178.9572 -1.5416 8.8213 0.7626 -4.8911
State:	 54.299  78.621  10.691   0.259 -0.522  0.813 -3.048   -175.45  -38.31 -153.35  178.96   -1.54    8.82    0.76   -4.89

DOCKED: MODEL       95
DOCKED: USER    Run = 95
DOCKED: USER    DPF = C:/Users/georg/Desktop/fall2024/4-Computational_Biology/Assignment/executables/HEM.dpf
DOCKED: USER  
DOCKED: USER    Estimated Free Energy of Binding    =  -19.99 kcal/mol  [=(1)+(2)+(3)-(4)]
DOCKED: USER    Estimated Inhibition Constant, Ki   =    2.22 fM (femtomolar)  [Temperature = 298.15 K]
DOCKED: USER    
DOCKED: USER    (1) Final Intermolecular Energy     =  -22.38 kcal/mol
DOCKED: USER        vdW + Hbond + desolv Energy     =  -18.28 kcal/mol
DOCKED: USER        Electrostatic Energy            =   -4.09 kcal/mol
DOCKED: USER    (2) Final Total Internal Energy     =   -0.55 kcal/mol
DOCKED: USER    (3) Torsional Free Energy           =   +2.39 kcal/mol
DOCKED: USER    (4) Unbound System's Energy  [=(2)] =   -0.55 kcal/mol
DOCKED: USER    
DOCKED: USER    
DOCKED: USER    NEWDPF move HEM.pdbqt
DOCKED: USER    NEWDPF about 54.495000 78.699000 10.493000
DOCKED: USER    NEWDPF tran0 54.299499 78.621021 10.690833
DOCKED: USER    NEWDPF quaternion0 0.006879 -0.013893 0.021613 -0.999646
DOCKED: USER    NEWDPF axisangle0 0.258613 -0.522349 0.812570 -3.048278
DOCKED: USER    NEWDPF quat0 0.258613 -0.522349 0.812570 -3.048278
DOCKED: USER    NEWDPF dihe0 -175.45 -38.31 -153.35 178.96 -1.54 8.82 0.76 -4.89 
DOCKED: USER  keepresnum = 1 
DOCKED: USER  
DOCKED: REMARK  8 active torsions:
DOCKED: REMARK  status: ('A' for Active; 'I' for Inactive)
DOCKED: REMARK    1  A    between atoms: C2A_3624  and  CAA_3628 
DOCKED: REMARK    2  A    between atoms: CAA_3628  and  CBA_3629 
DOCKED: REMARK    3  A    between atoms: CBA_3629  and  CGA_3630 
DOCKED: REMARK    4  A    between atoms: C3B_3635  and  CAB_3638 
DOCKED: REMARK    5  A    between atoms: C3C_3642  and  CAC_3645 
DOCKED: REMARK    6  A    between atoms: C3D_3649  and  CAD_3652 
DOCKED: REMARK    7  A    between atoms: CAD_3652  and  CBD_3653 
DOCKED: REMARK    8  A    between atoms: CBD_3653  and  CGD_3654 
DOCKED: USER                              x       y       z     vdW  Elec       q    Type
DOCKED: USER                           _______ _______ _______ _____ _____    ______ ____
DOCKED: ROOT
DOCKED: ATOM      1  CHA HEM A1501      54.143  80.954  10.308 -0.26 +0.04    +0.038 A 
DOCKED: ATOM      2  CHB HEM A1501      55.009  78.271  14.206 -0.40 +0.02    +0.038 A 
DOCKED: ATOM      3  CHC HEM A1501      55.497  74.354  11.432 -0.40 +0.01    +0.038 A 
DOCKED: ATOM      4  CHD HEM A1501      54.564  77.027   7.534 -0.39 +0.02    +0.038 A 
DOCKED: ATOM      5  C1A HEM A1501      54.310  80.563  11.632 -0.20 +0.07    +0.079 A 
DOCKED: ATOM      6  C2A HEM A1501      54.206  81.417  12.820 -0.35 -0.00    -0.006 A 
DOCKED: ATOM      7  C3A HEM A1501      54.452  80.654  13.876 -0.41 -0.00    -0.007 A 
DOCKED: ATOM      8  C4A HEM A1501      54.697  79.334  13.380 -0.33 +0.04    +0.079 A 
DOCKED: ATOM      9  CMA HEM A1501      54.454  81.065  15.316 -0.42 +0.01    +0.032 C 
DOCKED: ATOM     10  C1B HEM A1501      55.249  76.971  13.803 -0.33 +0.03    +0.079 A 
DOCKED: ATOM     11  C2B HEM A1501      55.595  75.887  14.714 -0.39 -0.00    -0.003 A 
DOCKED: ATOM     12  C3B HEM A1501      55.746  74.790  13.926 -0.40 +0.01    +0.015 A 
DOCKED: ATOM     13  C4B HEM A1501      55.470  75.202  12.553 -0.34 +0.03    +0.083 A 
DOCKED: ATOM     14  CMB HEM A1501      55.742  76.030  16.204 -0.56 +0.01    +0.033 C 
DOCKED: ATOM     15  C1C HEM A1501      55.263  74.676  10.122 -0.38 +0.03    +0.079 A 
DOCKED: ATOM     16  C2C HEM A1501      55.224  73.743   9.030 -0.47 -0.00    -0.003 A 
DOCKED: ATOM     17  C3C HEM A1501      54.946  74.471   7.919 -0.46 +0.01    +0.015 A 
DOCKED: ATOM     18  C4C HEM A1501      54.823  75.877   8.353 -0.37 +0.04    +0.083 A 
DOCKED: ATOM     19  CMC HEM A1501      55.460  72.255   9.189 -0.54 +0.01    +0.033 C 
DOCKED: ATOM     20  C1D HEM A1501      54.417  78.380   7.927 -0.33 +0.06    +0.079 A 
DOCKED: ATOM     21  C2D HEM A1501      54.152  79.471   7.038 -0.37 -0.01    -0.007 A 
DOCKED: ATOM     22  C3D HEM A1501      54.034  80.578   7.814 -0.36 -0.01    -0.006 A 
DOCKED: ATOM     23  C4D HEM A1501      54.220  80.160   9.190 -0.26 +0.08    +0.079 A 
DOCKED: ATOM     24  CMD HEM A1501      54.029  79.401   5.568 -0.46 +0.03    +0.032 C 
DOCKED: ATOM     25  NA  HEM A1501      54.582  79.278  12.023 -0.07 -0.17    -0.246 N 
DOCKED: ATOM     26  NB  HEM A1501      55.197  76.523  12.504 -0.15 -0.10    -0.246 N 
DOCKED: ATOM     27  NC  HEM A1501      54.996  75.928   9.675 -0.14 -0.11    -0.246 N 
DOCKED: ATOM     28  ND  HEM A1501      54.447  78.820   9.221 -0.17 -0.19    -0.246 N 
DOCKED: ATOM     29 FE   HEM A1501      54.796  77.632  10.834 -0.07 +0.00    +0.000 Fe
DOCKED: ENDROOT
DOCKED: BRANCH   6  30
DOCKED: ATOM     30  CAA HEM A1501      53.883  82.869  12.876 -0.43 +0.04    +0.039 C 
DOCKED: BRANCH  30  31
DOCKED: ATOM     31  CBA HEM A1501      52.426  83.105  13.223 -0.48 +0.10    +0.102 C 
DOCKED: BRANCH  31  32
DOCKED: ATOM     32  CGA HEM A1501      52.064  84.551  13.424 -0.52 +0.24    +0.186 C 
DOCKED: ATOM     33  O1A HEM A1501      52.731  85.421  12.818 -0.56 -1.33    -0.647 OA
DOCKED: ATOM     34  O2A HEM A1501      51.085  84.822  14.150 -0.45 -0.82    -0.647 OA
DOCKED: ENDBRANCH  31  32
DOCKED: ENDBRANCH  30  31
DOCKED: ENDBRANCH   6  30
DOCKED: BRANCH  22  35
DOCKED: ATOM     35  CAD HEM A1501      53.761  81.936   7.286 -0.45 +0.05    +0.039 C 
DOCKED: BRANCH  35  36
DOCKED: ATOM     36  CBD HEM A1501      52.281  82.136   6.962 -0.57 +0.15    +0.102 C 
DOCKED: BRANCH  36  37
DOCKED: ATOM     37  CGD HEM A1501      52.012  83.409   6.182 -0.60 +0.34    +0.186 C 
DOCKED: ATOM     38  O1D HEM A1501      52.732  84.362   6.552 -1.02 -1.58    -0.647 OA
DOCKED: ATOM     39  O2D HEM A1501      51.150  83.468   5.197 -1.13 -1.25    -0.647 OA
DOCKED: ENDBRANCH  36  37
DOCKED: ENDBRANCH  35  36
DOCKED: ENDBRANCH  22  35
DOCKED: BRANCH  17  40
DOCKED: ATOM     40  CAC HEM A1501      54.797  74.001   6.536 -0.60 +0.00    +0.001 C 
DOCKED: ATOM     41  CBC HEM A1501      55.697  73.310   5.821 -0.46 +0.00    +0.000 C 
DOCKED: ENDBRANCH  17  40
DOCKED: BRANCH  12  42
DOCKED: ATOM     42  CAB HEM A1501      56.108  73.393  14.259 -0.59 +0.00    +0.001 C 
DOCKED: ATOM     43  CBB HEM A1501      57.205  72.899  14.797 -0.62 +0.00    +0.000 C 
DOCKED: ENDBRANCH  12  42
DOCKED: TORSDOF 8
DOCKED: TER
DOCKED: ENDMDL
________________________________________________________________________________


	BEGINNING GENETIC ALGORITHM DOCKING 96 of 100
Run: 96 Seed: 1502207821 278730638 [ Run 96 of 100 GA/GALS ]
Beginning LAMARCKIAN GENETIC ALGORITHM (LGA), with a maximum of 2500000 energy evaluations.

Final-Value: -23.456


	FINAL GENETIC ALGORITHM DOCKED STATE
	_______________________________________________


Detailed state:  trans 54.345 78.797 10.645 quatxyzw -0.011900 -0.016901 0.011810 -0.999717 center 54.495 78.699 10.493 ntor 8 11.4415 -34.7156 14.4781 0.5944 22.1311 -1.7198 19.5305 -4.0956
State:	 54.345  78.797  10.645  -0.500 -0.710  0.496 -2.728     11.44  -34.72   14.48    0.59   22.13   -1.72   19.53   -4.10

DOCKED: MODEL       96
DOCKED: USER    Run = 96
DOCKED: USER    DPF = C:/Users/georg/Desktop/fall2024/4-Computational_Biology/Assignment/executables/HEM.dpf
DOCKED: USER  
DOCKED: USER    Estimated Free Energy of Binding    =  -20.58 kcal/mol  [=(1)+(2)+(3)-(4)]
DOCKED: USER    Estimated Inhibition Constant, Ki   =  819.96 aM (attomolar)  [Temperature = 298.15 K]
DOCKED: USER    
DOCKED: USER    (1) Final Intermolecular Energy     =  -22.97 kcal/mol
DOCKED: USER        vdW + Hbond + desolv Energy     =  -18.58 kcal/mol
DOCKED: USER        Electrostatic Energy            =   -4.39 kcal/mol
DOCKED: USER    (2) Final Total Internal Energy     =   -0.49 kcal/mol
DOCKED: USER    (3) Torsional Free Energy           =   +2.39 kcal/mol
DOCKED: USER    (4) Unbound System's Energy  [=(2)] =   -0.49 kcal/mol
DOCKED: USER    
DOCKED: USER    
DOCKED: USER    NEWDPF move HEM.pdbqt
DOCKED: USER    NEWDPF about 54.495000 78.699000 10.493000
DOCKED: USER    NEWDPF tran0 54.344879 78.796622 10.645382
DOCKED: USER    NEWDPF quaternion0 -0.011900 -0.016901 0.011810 -0.999717
DOCKED: USER    NEWDPF axisangle0 -0.499874 -0.709933 0.496106 -2.728248
DOCKED: USER    NEWDPF quat0 -0.499874 -0.709933 0.496106 -2.728248
DOCKED: USER    NEWDPF dihe0 11.44 -34.72 14.48 0.59 22.13 -1.72 19.53 -4.10 
DOCKED: USER  keepresnum = 1 
DOCKED: USER  
DOCKED: REMARK  8 active torsions:
DOCKED: REMARK  status: ('A' for Active; 'I' for Inactive)
DOCKED: REMARK    1  A    between atoms: C2A_3624  and  CAA_3628 
DOCKED: REMARK    2  A    between atoms: CAA_3628  and  CBA_3629 
DOCKED: REMARK    3  A    between atoms: CBA_3629  and  CGA_3630 
DOCKED: REMARK    4  A    between atoms: C3B_3635  and  CAB_3638 
DOCKED: REMARK    5  A    between atoms: C3C_3642  and  CAC_3645 
DOCKED: REMARK    6  A    between atoms: C3D_3649  and  CAD_3652 
DOCKED: REMARK    7  A    between atoms: CAD_3652  and  CBD_3653 
DOCKED: REMARK    8  A    between atoms: CBD_3653  and  CGD_3654 
DOCKED: USER                              x       y       z     vdW  Elec       q    Type
DOCKED: USER                           _______ _______ _______ _____ _____    ______ ____
DOCKED: ROOT
DOCKED: ATOM      1  CHA HEM A1501      54.238  81.116  10.175 -0.28 +0.04    +0.038 A 
DOCKED: ATOM      2  CHB HEM A1501      55.025  78.564  14.176 -0.40 +0.02    +0.038 A 
DOCKED: ATOM      3  CHC HEM A1501      55.451  74.537  11.552 -0.40 +0.01    +0.038 A 
DOCKED: ATOM      4  CHD HEM A1501      54.597  77.082   7.551 -0.39 +0.03    +0.038 A 
DOCKED: ATOM      5  C1A HEM A1501      54.388  80.772  11.514 -0.23 +0.07    +0.079 A 
DOCKED: ATOM      6  C2A HEM A1501      54.295  81.671  12.669 -0.34 -0.00    -0.006 A 
DOCKED: ATOM      7  C3A HEM A1501      54.518  80.943  13.754 -0.39 -0.00    -0.007 A 
DOCKED: ATOM      8  C4A HEM A1501      54.740  79.601  13.309 -0.32 +0.05    +0.079 A 
DOCKED: ATOM      9  CMA HEM A1501      54.519  81.408  15.178 -0.48 +0.01    +0.032 C 
DOCKED: ATOM     10  C1B HEM A1501      55.241  77.244  13.823 -0.34 +0.03    +0.079 A 
DOCKED: ATOM     11  C2B HEM A1501      55.559  76.188  14.776 -0.41 -0.00    -0.003 A 
DOCKED: ATOM     12  C3B HEM A1501      55.693  75.061  14.031 -0.39 +0.01    +0.015 A 
DOCKED: ATOM     13  C4B HEM A1501      55.434  75.426  12.641 -0.33 +0.03    +0.083 A 
DOCKED: ATOM     14  CMB HEM A1501      55.700  76.385  16.261 -0.56 +0.01    +0.033 C 
DOCKED: ATOM     15  C1C HEM A1501      55.232  74.815  10.230 -0.38 +0.03    +0.079 A 
DOCKED: ATOM     16  C2C HEM A1501      55.181  73.843   9.174 -0.47 -0.00    -0.003 A 
DOCKED: ATOM     17  C3C HEM A1501      54.924  74.534   8.034 -0.46 +0.01    +0.015 A 
DOCKED: ATOM     18  C4C HEM A1501      54.827  75.957   8.414 -0.36 +0.04    +0.083 A 
DOCKED: ATOM     19  CMC HEM A1501      55.386  72.357   9.388 -0.54 +0.01    +0.033 C 
DOCKED: ATOM     20  C1D HEM A1501      54.475  78.451   7.894 -0.33 +0.06    +0.079 A 
DOCKED: ATOM     21  C2D HEM A1501      54.238  79.512   6.963 -0.37 -0.01    -0.007 A 
DOCKED: ATOM     22  C3D HEM A1501      54.137  80.650   7.696 -0.35 -0.01    -0.006 A 
DOCKED: ATOM     23  C4D HEM A1501      54.306  80.280   9.088 -0.26 +0.08    +0.079 A 
DOCKED: ATOM     24  CMD HEM A1501      54.123  79.391   5.496 -0.48 +0.03    +0.032 C 
DOCKED: ATOM     25  NA  HEM A1501      54.632  79.497  11.954 -0.12 -0.17    -0.246 N 
DOCKED: ATOM     26  NB  HEM A1501      55.188  76.750  12.542 -0.14 -0.11    -0.246 N 
DOCKED: ATOM     27  NC  HEM A1501      54.993  76.054   9.735 -0.09 -0.11    -0.246 N 
DOCKED: ATOM     28  ND  HEM A1501      54.506  78.938   9.170 -0.18 -0.20    -0.246 N 
DOCKED: ATOM     29 FE   HEM A1501      54.820  77.804  10.829 -0.07 +0.00    +0.000 Fe
DOCKED: ENDROOT
DOCKED: BRANCH   6  30
DOCKED: ATOM     30  CAA HEM A1501      54.001  83.130  12.669 -0.41 +0.04    +0.039 C 
DOCKED: BRANCH  30  31
DOCKED: ATOM     31  CBA HEM A1501      52.721  83.444  13.420 -0.52 +0.11    +0.102 C 
DOCKED: BRANCH  31  32
DOCKED: ATOM     32  CGA HEM A1501      52.136  84.794  13.109 -0.48 +0.27    +0.186 C 
DOCKED: ATOM     33  O1A HEM A1501      51.267  85.258  13.883 -0.64 -0.90    -0.647 OA
DOCKED: ATOM     34  O2A HEM A1501      52.573  85.416  12.119 -0.40 -1.40    -0.647 OA
DOCKED: ENDBRANCH  31  32
DOCKED: ENDBRANCH  30  31
DOCKED: ENDBRANCH   6  30
DOCKED: BRANCH  22  35
DOCKED: ATOM     35  CAD HEM A1501      53.895  81.993   7.116 -0.44 +0.05    +0.039 C 
DOCKED: BRANCH  35  36
DOCKED: ATOM     36  CBD HEM A1501      52.418  82.217   6.793 -0.57 +0.15    +0.102 C 
DOCKED: BRANCH  36  37
DOCKED: ATOM     37  CGD HEM A1501      52.145  83.583   6.190 -0.64 +0.35    +0.186 C 
DOCKED: ATOM     38  O1D HEM A1501      51.249  83.553   5.318 -1.09 -1.25    -0.647 OA
DOCKED: ATOM     39  O2D HEM A1501      52.756  84.670   6.591 -1.09 -1.75    -0.647 OA
DOCKED: ENDBRANCH  36  37
DOCKED: ENDBRANCH  35  36
DOCKED: ENDBRANCH  22  35
DOCKED: BRANCH  17  40
DOCKED: ATOM     40  CAC HEM A1501      54.774  74.017   6.668 -0.59 +0.00    +0.001 C 
DOCKED: ATOM     41  CBC HEM A1501      53.780  74.290   5.810 -0.66 +0.00    +0.000 C 
DOCKED: ENDBRANCH  17  40
DOCKED: BRANCH  12  42
DOCKED: ATOM     42  CAB HEM A1501      56.024  73.670  14.418 -0.57 +0.00    +0.001 C 
DOCKED: ATOM     43  CBB HEM A1501      57.081  73.184  15.038 -0.63 +0.00    +0.000 C 
DOCKED: ENDBRANCH  12  42
DOCKED: TORSDOF 8
DOCKED: TER
DOCKED: ENDMDL
________________________________________________________________________________


	BEGINNING GENETIC ALGORITHM DOCKING 97 of 100
Run: 97 Seed: 479851524 518080704 [ Run 97 of 100 GA/GALS ]
Beginning LAMARCKIAN GENETIC ALGORITHM (LGA), with a maximum of 2500000 energy evaluations.

Final-Value: -23.643


	FINAL GENETIC ALGORITHM DOCKED STATE
	_______________________________________________


Detailed state:  trans 54.894 79.043 10.709 quatxyzw 0.184338 -0.972679 0.141048 0.004535 center 54.495 78.699 10.493 ntor 8 179.7975 -86.7229 -179.9902 -120.3941 12.1289 14.6337 144.5687 -170.6372
State:	 54.894  79.043  10.709   0.184 -0.973  0.141 179.480    179.80  -86.72 -179.99 -120.39   12.13   14.63  144.57 -170.64

DOCKED: MODEL       97
DOCKED: USER    Run = 97
DOCKED: USER    DPF = C:/Users/georg/Desktop/fall2024/4-Computational_Biology/Assignment/executables/HEM.dpf
DOCKED: USER  
DOCKED: USER    Estimated Free Energy of Binding    =  -20.72 kcal/mol  [=(1)+(2)+(3)-(4)]
DOCKED: USER    Estimated Inhibition Constant, Ki   =  647.88 aM (attomolar)  [Temperature = 298.15 K]
DOCKED: USER    
DOCKED: USER    (1) Final Intermolecular Energy     =  -23.11 kcal/mol
DOCKED: USER        vdW + Hbond + desolv Energy     =  -18.67 kcal/mol
DOCKED: USER        Electrostatic Energy            =   -4.44 kcal/mol
DOCKED: USER    (2) Final Total Internal Energy     =   -0.54 kcal/mol
DOCKED: USER    (3) Torsional Free Energy           =   +2.39 kcal/mol
DOCKED: USER    (4) Unbound System's Energy  [=(2)] =   -0.54 kcal/mol
DOCKED: USER    
DOCKED: USER    
DOCKED: USER    NEWDPF move HEM.pdbqt
DOCKED: USER    NEWDPF about 54.495000 78.699000 10.493000
DOCKED: USER    NEWDPF tran0 54.893673 79.042679 10.709144
DOCKED: USER    NEWDPF quaternion0 0.184338 -0.972679 0.141048 0.004535
DOCKED: USER    NEWDPF axisangle0 0.184340 -0.972689 0.141050 179.480348
DOCKED: USER    NEWDPF quat0 0.184340 -0.972689 0.141050 179.480348
DOCKED: USER    NEWDPF dihe0 179.80 -86.72 -179.99 -120.39 12.13 14.63 144.57 -170.64 
DOCKED: USER  keepresnum = 1 
DOCKED: USER  
DOCKED: REMARK  8 active torsions:
DOCKED: REMARK  status: ('A' for Active; 'I' for Inactive)
DOCKED: REMARK    1  A    between atoms: C2A_3624  and  CAA_3628 
DOCKED: REMARK    2  A    between atoms: CAA_3628  and  CBA_3629 
DOCKED: REMARK    3  A    between atoms: CBA_3629  and  CGA_3630 
DOCKED: REMARK    4  A    between atoms: C3B_3635  and  CAB_3638 
DOCKED: REMARK    5  A    between atoms: C3C_3642  and  CAC_3645 
DOCKED: REMARK    6  A    between atoms: C3D_3649  and  CAD_3652 
DOCKED: REMARK    7  A    between atoms: CAD_3652  and  CBD_3653 
DOCKED: REMARK    8  A    between atoms: CBD_3653  and  CGD_3654 
DOCKED: USER                              x       y       z     vdW  Elec       q    Type
DOCKED: USER                           _______ _______ _______ _____ _____    ______ ____
DOCKED: ROOT
DOCKED: ATOM      1  CHA HEM A1501      54.098  81.260  10.458 -0.29 +0.04    +0.038 A 
DOCKED: ATOM      2  CHB HEM A1501      54.488  77.505   7.476 -0.39 +0.03    +0.038 A 
DOCKED: ATOM      3  CHC HEM A1501      55.516  74.620  11.204 -0.40 +0.01    +0.038 A 
DOCKED: ATOM      4  CHD HEM A1501      55.191  78.393  14.183 -0.39 +0.02    +0.038 A 
DOCKED: ATOM      5  C1A HEM A1501      54.140  80.492   9.299 -0.27 +0.08    +0.079 A 
DOCKED: ATOM      6  C2A HEM A1501      53.930  80.962   7.925 -0.37 -0.01    -0.006 A 
DOCKED: ATOM      7  C3A HEM A1501      54.040  79.909   7.128 -0.37 -0.01    -0.007 A 
DOCKED: ATOM      8  C4A HEM A1501      54.326  78.786   7.969 -0.33 +0.07    +0.079 A 
DOCKED: ATOM      9  CMA HEM A1501      53.918  79.880   5.635 -0.48 +0.03    +0.032 C 
DOCKED: ATOM     10  C1B HEM A1501      54.773  76.376   8.222 -0.36 +0.05    +0.079 A 
DOCKED: ATOM     11  C2B HEM A1501      54.914  75.041   7.655 -0.47 -0.00    -0.003 A 
DOCKED: ATOM     12  C3B HEM A1501      55.188  74.231   8.711 -0.45 +0.01    +0.015 A 
DOCKED: ATOM     13  C4B HEM A1501      55.237  75.073   9.903 -0.36 +0.03    +0.083 A 
DOCKED: ATOM     14  CMB HEM A1501      54.767  74.706   6.196 -0.60 +0.02    +0.033 C 
DOCKED: ATOM     15  C1C HEM A1501      55.563  75.350  12.361 -0.34 +0.03    +0.079 A 
DOCKED: ATOM     16  C2C HEM A1501      55.937  74.840  13.651 -0.43 -0.00    -0.003 A 
DOCKED: ATOM     17  C3C HEM A1501      55.869  75.891  14.508 -0.40 +0.01    +0.015 A 
DOCKED: ATOM     18  C4C HEM A1501      55.436  77.057  13.715 -0.32 +0.03    +0.083 A 
DOCKED: ATOM     19  CMC HEM A1501      56.318  73.395  13.905 -0.54 +0.01    +0.033 C 
DOCKED: ATOM     20  C1D HEM A1501      54.799  79.534  13.440 -0.33 +0.04    +0.079 A 
DOCKED: ATOM     21  C2D HEM A1501      54.581  80.837  13.990 -0.40 -0.00    -0.007 A 
DOCKED: ATOM     22  C3D HEM A1501      54.272  81.648  12.946 -0.35 -0.00    -0.006 A 
DOCKED: ATOM     23  C4D HEM A1501      54.309  80.834  11.746 -0.24 +0.07    +0.079 A 
DOCKED: ATOM     24  CMD HEM A1501      54.677  81.223  15.413 -0.46 +0.01    +0.032 C 
DOCKED: ATOM     25  NA  HEM A1501      54.413  79.150   9.280 -0.18 -0.20    -0.246 N 
DOCKED: ATOM     26  NB  HEM A1501      54.960  76.355   9.583 -0.04 -0.12    -0.246 N 
DOCKED: ATOM     27  NC  HEM A1501      55.296  76.677  12.444 -0.14 -0.11    -0.246 N 
DOCKED: ATOM     28  ND  HEM A1501      54.635  79.558  12.084 -0.13 -0.17    -0.246 N 
DOCKED: ATOM     29 FE   HEM A1501      54.837  77.940  10.869 -0.07 +0.00    +0.000 Fe
DOCKED: ENDROOT
DOCKED: BRANCH   6  30
DOCKED: ATOM     30  CAA HEM A1501      53.651  82.350   7.467 -0.43 +0.06    +0.039 C 
DOCKED: BRANCH  30  31
DOCKED: ATOM     31  CBA HEM A1501      52.291  82.459   6.805 -0.59 +0.16    +0.102 C 
DOCKED: BRANCH  31  32
DOCKED: ATOM     32  CGA HEM A1501      52.026  83.786   6.149 -0.64 +0.36    +0.186 C 
DOCKED: ATOM     33  O1A HEM A1501      52.927  84.656   6.182 -1.17 -1.65    -0.647 OA
DOCKED: ATOM     34  O2A HEM A1501      50.938  83.950   5.560 -0.95 -1.40    -0.647 OA
DOCKED: ENDBRANCH  31  32
DOCKED: ENDBRANCH  30  31
DOCKED: ENDBRANCH   6  30
DOCKED: BRANCH  22  35
DOCKED: ATOM     35  CAD HEM A1501      53.967  83.092  13.079 -0.42 +0.04    +0.039 C 
DOCKED: BRANCH  35  36
DOCKED: ATOM     36  CBD HEM A1501      52.491  83.337  13.392 -0.52 +0.10    +0.102 C 
DOCKED: BRANCH  36  37
DOCKED: ATOM     37  CGD HEM A1501      52.062  84.770  13.140 -0.49 +0.26    +0.186 C 
DOCKED: ATOM     38  O1D HEM A1501      52.807  85.360  12.327 -0.50 -1.42    -0.647 OA
DOCKED: ATOM     39  O2D HEM A1501      50.994  85.297  13.687 -0.80 -0.91    -0.647 OA
DOCKED: ENDBRANCH  36  37
DOCKED: ENDBRANCH  35  36
DOCKED: ENDBRANCH  22  35
DOCKED: BRANCH  17  40
DOCKED: ATOM     40  CAC HEM A1501      56.152  75.910  15.949 -0.55 +0.00    +0.001 C 
DOCKED: ATOM     41  CBC HEM A1501      55.519  75.208  16.901 -0.63 +0.00    +0.000 C 
DOCKED: ENDBRANCH  17  40
DOCKED: BRANCH  12  42
DOCKED: ATOM     42  CAB HEM A1501      55.423  72.770   8.783 -0.53 +0.00    +0.001 C 
DOCKED: ATOM     43  CBB HEM A1501      54.684  71.811   9.303 -0.57 +0.00    +0.000 C 
DOCKED: ENDBRANCH  12  42
DOCKED: TORSDOF 8
DOCKED: TER
DOCKED: ENDMDL
________________________________________________________________________________


	BEGINNING GENETIC ALGORITHM DOCKING 98 of 100
Run: 98 Seed: 176454538 4632185 [ Run 98 of 100 GA/GALS ]
Beginning LAMARCKIAN GENETIC ALGORITHM (LGA), with a maximum of 2500000 energy evaluations.

Final-Value: -23.100


	FINAL GENETIC ALGORITHM DOCKED STATE
	_______________________________________________


Detailed state:  trans 54.926 79.133 10.570 quatxyzw 0.176721 -0.965365 0.190294 0.025083 center 54.495 78.699 10.493 ntor 8 -177.7303 -26.5632 162.8350 -125.2472 -3.5522 -45.1007 163.1617 -179.1140
State:	 54.926  79.133  10.570   0.177 -0.966  0.190 177.125   -177.73  -26.56  162.84 -125.25   -3.55  -45.10  163.16 -179.11

DOCKED: MODEL       98
DOCKED: USER    Run = 98
DOCKED: USER    DPF = C:/Users/georg/Desktop/fall2024/4-Computational_Biology/Assignment/executables/HEM.dpf
DOCKED: USER  
DOCKED: USER    Estimated Free Energy of Binding    =  -20.10 kcal/mol  [=(1)+(2)+(3)-(4)]
DOCKED: USER    Estimated Inhibition Constant, Ki   =    1.86 fM (femtomolar)  [Temperature = 298.15 K]
DOCKED: USER    
DOCKED: USER    (1) Final Intermolecular Energy     =  -22.48 kcal/mol
DOCKED: USER        vdW + Hbond + desolv Energy     =  -18.44 kcal/mol
DOCKED: USER        Electrostatic Energy            =   -4.04 kcal/mol
DOCKED: USER    (2) Final Total Internal Energy     =   -0.62 kcal/mol
DOCKED: USER    (3) Torsional Free Energy           =   +2.39 kcal/mol
DOCKED: USER    (4) Unbound System's Energy  [=(2)] =   -0.62 kcal/mol
DOCKED: USER    
DOCKED: USER    
DOCKED: USER    NEWDPF move HEM.pdbqt
DOCKED: USER    NEWDPF about 54.495000 78.699000 10.493000
DOCKED: USER    NEWDPF tran0 54.925601 79.132624 10.570437
DOCKED: USER    NEWDPF quaternion0 0.176721 -0.965365 0.190294 0.025083
DOCKED: USER    NEWDPF axisangle0 0.176776 -0.965668 0.190354 177.125398
DOCKED: USER    NEWDPF quat0 0.176776 -0.965668 0.190354 177.125398
DOCKED: USER    NEWDPF dihe0 -177.73 -26.56 162.84 -125.25 -3.55 -45.10 163.16 -179.11 
DOCKED: USER  keepresnum = 1 
DOCKED: USER  
DOCKED: REMARK  8 active torsions:
DOCKED: REMARK  status: ('A' for Active; 'I' for Inactive)
DOCKED: REMARK    1  A    between atoms: C2A_3624  and  CAA_3628 
DOCKED: REMARK    2  A    between atoms: CAA_3628  and  CBA_3629 
DOCKED: REMARK    3  A    between atoms: CBA_3629  and  CGA_3630 
DOCKED: REMARK    4  A    between atoms: C3B_3635  and  CAB_3638 
DOCKED: REMARK    5  A    between atoms: C3C_3642  and  CAC_3645 
DOCKED: REMARK    6  A    between atoms: C3D_3649  and  CAD_3652 
DOCKED: REMARK    7  A    between atoms: CAD_3652  and  CBD_3653 
DOCKED: REMARK    8  A    between atoms: CBD_3653  and  CGD_3654 
DOCKED: USER                              x       y       z     vdW  Elec       q    Type
DOCKED: USER                           _______ _______ _______ _____ _____    ______ ____
DOCKED: ROOT
DOCKED: ATOM      1  CHA HEM A1501      54.167  81.321  10.073 -0.29 +0.04    +0.038 A 
DOCKED: ATOM      2  CHB HEM A1501      54.700  77.311   7.470 -0.37 +0.03    +0.038 A 
DOCKED: ATOM      3  CHC HEM A1501      55.475  74.770  11.497 -0.40 +0.01    +0.038 A 
DOCKED: ATOM      4  CHD HEM A1501      55.008  78.798  14.100 -0.39 +0.02    +0.038 A 
DOCKED: ATOM      5  C1A HEM A1501      54.271  80.452   8.992 -0.27 +0.08    +0.079 A 
DOCKED: ATOM      6  C2A HEM A1501      54.149  80.796   7.572 -0.35 -0.01    -0.006 A 
DOCKED: ATOM      7  C3A HEM A1501      54.297  79.675   6.881 -0.36 -0.01    -0.007 A 
DOCKED: ATOM      8  C4A HEM A1501      54.521  78.632   7.835 -0.31 +0.06    +0.079 A 
DOCKED: ATOM      9  CMA HEM A1501      54.264  79.512   5.392 -0.49 +0.03    +0.032 C 
DOCKED: ATOM     10  C1B HEM A1501      54.929  76.253   8.330 -0.34 +0.04    +0.079 A 
DOCKED: ATOM     11  C2B HEM A1501      55.091  74.871   7.895 -0.46 -0.00    -0.003 A 
DOCKED: ATOM     12  C3B HEM A1501      55.294  74.159   9.034 -0.45 +0.01    +0.015 A 
DOCKED: ATOM     13  C4B HEM A1501      55.279  75.105  10.146 -0.35 +0.03    +0.083 A 
DOCKED: ATOM     14  CMB HEM A1501      55.028  74.407   6.466 -0.58 +0.02    +0.033 C 
DOCKED: ATOM     15  C1C HEM A1501      55.459  75.601  12.585 -0.33 +0.03    +0.079 A 
DOCKED: ATOM     16  C2C HEM A1501      55.751  75.208  13.936 -0.40 -0.00    -0.003 A 
DOCKED: ATOM     17  C3C HEM A1501      55.642  76.333  14.690 -0.40 +0.01    +0.015 A 
DOCKED: ATOM     18  C4C HEM A1501      55.268  77.425  13.770 -0.33 +0.03    +0.083 A 
DOCKED: ATOM     19  CMC HEM A1501      56.102  73.791  14.341 -0.54 +0.01    +0.033 C 
DOCKED: ATOM     20  C1D HEM A1501      54.672  79.869  13.236 -0.32 +0.05    +0.079 A 
DOCKED: ATOM     21  C2D HEM A1501      54.434  81.217  13.652 -0.38 -0.00    -0.007 A 
DOCKED: ATOM     22  C3D HEM A1501      54.196  81.932  12.522 -0.35 -0.01    -0.006 A 
DOCKED: ATOM     23  C4D HEM A1501      54.297  81.013  11.405 -0.24 +0.07    +0.079 A 
DOCKED: ATOM     24  CMD HEM A1501      54.448  81.729  15.037 -0.46 +0.02    +0.032 C 
DOCKED: ATOM     25  NA  HEM A1501      54.532  79.112   9.111 -0.18 -0.20    -0.246 N 
DOCKED: ATOM     26  NB  HEM A1501      55.034  76.354   9.697 -0.04 -0.12    -0.246 N 
DOCKED: ATOM     27  NC  HEM A1501      55.201  76.931  12.532 -0.13 -0.11    -0.246 N 
DOCKED: ATOM     28  ND  HEM A1501      54.590  79.771  11.875 -0.14 -0.18    -0.246 N 
DOCKED: ATOM     29 FE   HEM A1501      54.849  78.049  10.825 -0.07 +0.00    +0.000 Fe
DOCKED: ENDROOT
DOCKED: BRANCH   6  30
DOCKED: ATOM     30  CAA HEM A1501      53.911  82.139   6.975 -0.45 +0.05    +0.039 C 
DOCKED: BRANCH  30  31
DOCKED: ATOM     31  CBA HEM A1501      52.450  82.346   6.628 -0.58 +0.15    +0.102 C 
DOCKED: BRANCH  31  32
DOCKED: ATOM     32  CGA HEM A1501      52.110  83.744   6.187 -0.64 +0.36    +0.186 C 
DOCKED: ATOM     33  O1A HEM A1501      52.931  84.659   6.428 -1.18 -1.74    -0.647 OA
DOCKED: ATOM     34  O2A HEM A1501      51.046  83.926   5.560 -1.00 -1.37    -0.647 OA
DOCKED: ENDBRANCH  31  32
DOCKED: ENDBRANCH  30  31
DOCKED: ENDBRANCH   6  30
DOCKED: BRANCH  22  35
DOCKED: ATOM     35  CAD HEM A1501      53.897  83.383  12.506 -0.43 +0.05    +0.039 C 
DOCKED: BRANCH  35  36
DOCKED: ATOM     36  CBD HEM A1501      52.393  83.656  12.497 -0.40 +0.13    +0.102 C 
DOCKED: BRANCH  36  37
DOCKED: ATOM     37  CGD HEM A1501      51.989  84.776  13.438 -0.52 +0.25    +0.186 C 
DOCKED: ATOM     38  O1D HEM A1501      52.954  85.498  13.769 -0.51 -1.05    -0.647 OA
DOCKED: ATOM     39  O2D HEM A1501      50.748  84.977  13.810 -0.70 -0.83    -0.647 OA
DOCKED: ENDBRANCH  36  37
DOCKED: ENDBRANCH  35  36
DOCKED: ENDBRANCH  22  35
DOCKED: BRANCH  17  40
DOCKED: ATOM     40  CAC HEM A1501      55.838  76.481  16.137 -0.57 +0.00    +0.001 C 
DOCKED: ATOM     41  CBC HEM A1501      55.173  75.836  17.108 -0.66 +0.00    +0.000 C 
DOCKED: ENDBRANCH  17  40
DOCKED: BRANCH  12  42
DOCKED: ATOM     42  CAB HEM A1501      55.510  72.710   9.252 -0.55 +0.00    +0.001 C 
DOCKED: ATOM     43  CBB HEM A1501      54.827  71.669   8.818 -0.55 +0.00    +0.000 C 
DOCKED: ENDBRANCH  12  42
DOCKED: TORSDOF 8
DOCKED: TER
DOCKED: ENDMDL
________________________________________________________________________________


	BEGINNING GENETIC ALGORITHM DOCKING 99 of 100
Run: 99 Seed: 1517235502 921208652 [ Run 99 of 100 GA/GALS ]
Beginning LAMARCKIAN GENETIC ALGORITHM (LGA), with a maximum of 2500000 energy evaluations.

Final-Value: -23.351


	FINAL GENETIC ALGORITHM DOCKED STATE
	_______________________________________________


Detailed state:  trans 54.935 78.853 10.491 quatxyzw 0.155872 -0.977295 0.143426 0.005280 center 54.495 78.699 10.493 ntor 8 119.9566 64.0194 -165.1890 -109.1836 -17.8533 5.4620 129.5693 179.2631
State:	 54.935  78.853  10.491   0.156 -0.977  0.143 179.395    119.96   64.02 -165.19 -109.18  -17.85    5.46  129.57  179.26

DOCKED: MODEL       99
DOCKED: USER    Run = 99
DOCKED: USER    DPF = C:/Users/georg/Desktop/fall2024/4-Computational_Biology/Assignment/executables/HEM.dpf
DOCKED: USER  
DOCKED: USER    Estimated Free Energy of Binding    =  -20.58 kcal/mol  [=(1)+(2)+(3)-(4)]
DOCKED: USER    Estimated Inhibition Constant, Ki   =  823.96 aM (attomolar)  [Temperature = 298.15 K]
DOCKED: USER    
DOCKED: USER    (1) Final Intermolecular Energy     =  -22.96 kcal/mol
DOCKED: USER        vdW + Hbond + desolv Energy     =  -18.19 kcal/mol
DOCKED: USER        Electrostatic Energy            =   -4.77 kcal/mol
DOCKED: USER    (2) Final Total Internal Energy     =   -0.39 kcal/mol
DOCKED: USER    (3) Torsional Free Energy           =   +2.39 kcal/mol
DOCKED: USER    (4) Unbound System's Energy  [=(2)] =   -0.39 kcal/mol
DOCKED: USER    
DOCKED: USER    
DOCKED: USER    NEWDPF move HEM.pdbqt
DOCKED: USER    NEWDPF about 54.495000 78.699000 10.493000
DOCKED: USER    NEWDPF tran0 54.935333 78.852680 10.491027
DOCKED: USER    NEWDPF quaternion0 0.155872 -0.977295 0.143426 0.005280
DOCKED: USER    NEWDPF axisangle0 0.155875 -0.977308 0.143428 179.395003
DOCKED: USER    NEWDPF quat0 0.155875 -0.977308 0.143428 179.395003
DOCKED: USER    NEWDPF dihe0 119.96 64.02 -165.19 -109.18 -17.85 5.46 129.57 179.26 
DOCKED: USER  keepresnum = 1 
DOCKED: USER  
DOCKED: REMARK  8 active torsions:
DOCKED: REMARK  status: ('A' for Active; 'I' for Inactive)
DOCKED: REMARK    1  A    between atoms: C2A_3624  and  CAA_3628 
DOCKED: REMARK    2  A    between atoms: CAA_3628  and  CBA_3629 
DOCKED: REMARK    3  A    between atoms: CBA_3629  and  CGA_3630 
DOCKED: REMARK    4  A    between atoms: C3B_3635  and  CAB_3638 
DOCKED: REMARK    5  A    between atoms: C3C_3642  and  CAC_3645 
DOCKED: REMARK    6  A    between atoms: C3D_3649  and  CAD_3652 
DOCKED: REMARK    7  A    between atoms: CAD_3652  and  CBD_3653 
DOCKED: REMARK    8  A    between atoms: CBD_3653  and  CGD_3654 
DOCKED: USER                              x       y       z     vdW  Elec       q    Type
DOCKED: USER                           _______ _______ _______ _____ _____    ______ ____
DOCKED: ROOT
DOCKED: ATOM      1  CHA HEM A1501      54.269  81.111  10.226 -0.27 +0.04    +0.038 A 
DOCKED: ATOM      2  CHB HEM A1501      54.476  77.331   7.258 -0.40 +0.03    +0.038 A 
DOCKED: ATOM      3  CHC HEM A1501      55.300  74.403  11.003 -0.41 +0.01    +0.038 A 
DOCKED: ATOM      4  CHD HEM A1501      55.159  78.198  13.969 -0.38 +0.02    +0.038 A 
DOCKED: ATOM      5  C1A HEM A1501      54.280  80.338   9.069 -0.27 +0.08    +0.079 A 
DOCKED: ATOM      6  C2A HEM A1501      54.111  80.815   7.693 -0.35 -0.01    -0.006 A 
DOCKED: ATOM      7  C3A HEM A1501      54.169  79.755   6.900 -0.37 -0.01    -0.007 A 
DOCKED: ATOM      8  C4A HEM A1501      54.382  78.620   7.745 -0.33 +0.06    +0.079 A 
DOCKED: ATOM      9  CMA HEM A1501      54.061  79.728   5.405 -0.49 +0.03    +0.032 C 
DOCKED: ATOM     10  C1B HEM A1501      54.688  76.190   8.009 -0.38 +0.05    +0.079 A 
DOCKED: ATOM     11  C2B HEM A1501      54.760  74.847   7.447 -0.49 -0.00    -0.003 A 
DOCKED: ATOM     12  C3B HEM A1501      54.976  74.026   8.508 -0.45 +0.01    +0.015 A 
DOCKED: ATOM     13  C4B HEM A1501      55.060  74.867   9.698 -0.37 +0.03    +0.083 A 
DOCKED: ATOM     14  CMB HEM A1501      54.608  74.517   5.988 -0.60 +0.02    +0.033 C 
DOCKED: ATOM     15  C1C HEM A1501      55.376  75.133  12.159 -0.34 +0.03    +0.079 A 
DOCKED: ATOM     16  C2C HEM A1501      55.708  74.606  13.454 -0.43 -0.00    -0.003 A 
DOCKED: ATOM     17  C3C HEM A1501      55.691  75.662  14.308 -0.38 +0.01    +0.015 A 
DOCKED: ATOM     18  C4C HEM A1501      55.333  76.849  13.508 -0.31 +0.03    +0.083 A 
DOCKED: ATOM     19  CMC HEM A1501      56.003  73.143  13.716 -0.52 +0.01    +0.033 C 
DOCKED: ATOM     20  C1D HEM A1501      54.841  79.357  13.220 -0.31 +0.04    +0.079 A 
DOCKED: ATOM     21  C2D HEM A1501      54.692  80.672  13.764 -0.38 -0.00    -0.007 A 
DOCKED: ATOM     22  C3D HEM A1501      54.440  81.496  12.715 -0.32 -0.00    -0.006 A 
DOCKED: ATOM     23  C4D HEM A1501      54.443  80.678  11.518 -0.23 +0.07    +0.079 A 
DOCKED: ATOM     24  CMD HEM A1501      54.795  81.056  15.187 -0.46 +0.01    +0.032 C 
DOCKED: ATOM     25  NA  HEM A1501      54.476  78.983   9.056 -0.19 -0.20    -0.246 N 
DOCKED: ATOM     26  NB  HEM A1501      54.860  76.162   9.373 -0.14 -0.12    -0.246 N 
DOCKED: ATOM     27  NC  HEM A1501      55.185  76.473  12.236 -0.10 -0.10    -0.246 N 
DOCKED: ATOM     28  ND  HEM A1501      54.692  79.386  11.861 -0.11 -0.17    -0.246 N 
DOCKED: ATOM     29 FE   HEM A1501      54.814  77.755  10.653 -0.07 +0.00    +0.000 Fe
DOCKED: ENDROOT
DOCKED: BRANCH   6  30
DOCKED: ATOM     30  CAA HEM A1501      53.916  82.215   7.228 -0.43 +0.06    +0.039 C 
DOCKED: BRANCH  30  31
DOCKED: ATOM     31  CBA HEM A1501      52.765  82.326   6.247 -0.57 +0.15    +0.102 C 
DOCKED: BRANCH  31  32
DOCKED: ATOM     32  CGA HEM A1501      52.178  83.706   6.134 -0.65 +0.35    +0.186 C 
DOCKED: ATOM     33  O1A HEM A1501      52.837  84.671   6.583 -1.11 -1.77    -0.647 OA
DOCKED: ATOM     34  O2A HEM A1501      51.079  83.837   5.556 -1.00 -1.35    -0.647 OA
DOCKED: ENDBRANCH  31  32
DOCKED: ENDBRANCH  30  31
DOCKED: ENDBRANCH   6  30
DOCKED: BRANCH  22  35
DOCKED: ATOM     35  CAD HEM A1501      54.216  82.955  12.841 -0.38 +0.04    +0.039 C 
DOCKED: BRANCH  35  36
DOCKED: ATOM     36  CBD HEM A1501      52.728  83.302  12.891 -0.51 +0.11    +0.102 C 
DOCKED: BRANCH  36  37
DOCKED: ATOM     37  CGD HEM A1501      52.466  84.796  12.837 -0.39 +0.29    +0.186 C 
DOCKED: ATOM     38  O1D HEM A1501      53.296  85.405  12.127 -0.44 -1.60    -0.647 OA
DOCKED: ATOM     39  O2D HEM A1501      51.446  85.359  13.436 -0.61 -1.00    -0.647 OA
DOCKED: ENDBRANCH  36  37
DOCKED: ENDBRANCH  35  36
DOCKED: ENDBRANCH  22  35
DOCKED: BRANCH  17  40
DOCKED: ATOM     40  CAC HEM A1501      55.960  75.670  15.751 -0.54 +0.00    +0.001 C 
DOCKED: ATOM     41  CBC HEM A1501      55.123  76.068  16.722 -0.61 +0.00    +0.000 C 
DOCKED: ENDBRANCH  17  40
DOCKED: BRANCH  12  42
DOCKED: ATOM     42  CAB HEM A1501      55.127  72.554   8.586 -0.56 +0.00    +0.001 C 
DOCKED: ATOM     43  CBB HEM A1501      55.759  71.716   7.789 -0.53 +0.00    +0.000 C 
DOCKED: ENDBRANCH  12  42
DOCKED: TORSDOF 8
DOCKED: TER
DOCKED: ENDMDL
________________________________________________________________________________


	BEGINNING GENETIC ALGORITHM DOCKING 100 of 100
Run: 100 Seed: 242380883 34148275 [ Run 100 of 100 GA/GALS ]
Beginning LAMARCKIAN GENETIC ALGORITHM (LGA), with a maximum of 2500000 energy evaluations.

Final-Value: -23.684


	FINAL GENETIC ALGORITHM DOCKED STATE
	_______________________________________________


Detailed state:  trans 54.911 78.979 10.560 quatxyzw 0.176381 -0.971772 0.155354 0.020332 center 54.495 78.699 10.493 ntor 8 133.3853 -87.1356 179.8861 -129.0515 -2.9845 11.4156 146.4377 -160.8261
State:	 54.911  78.979  10.560   0.176 -0.972  0.155 177.670    133.39  -87.14  179.89 -129.05   -2.98   11.42  146.44 -160.83

DOCKED: MODEL      100
DOCKED: USER    Run = 100
DOCKED: USER    DPF = C:/Users/georg/Desktop/fall2024/4-Computational_Biology/Assignment/executables/HEM.dpf
DOCKED: USER  
DOCKED: USER    Estimated Free Energy of Binding    =  -20.77 kcal/mol  [=(1)+(2)+(3)-(4)]
DOCKED: USER    Estimated Inhibition Constant, Ki   =  597.55 aM (attomolar)  [Temperature = 298.15 K]
DOCKED: USER    
DOCKED: USER    (1) Final Intermolecular Energy     =  -23.16 kcal/mol
DOCKED: USER        vdW + Hbond + desolv Energy     =  -18.61 kcal/mol
DOCKED: USER        Electrostatic Energy            =   -4.55 kcal/mol
DOCKED: USER    (2) Final Total Internal Energy     =   -0.53 kcal/mol
DOCKED: USER    (3) Torsional Free Energy           =   +2.39 kcal/mol
DOCKED: USER    (4) Unbound System's Energy  [=(2)] =   -0.53 kcal/mol
DOCKED: USER    
DOCKED: USER    
DOCKED: USER    NEWDPF move HEM.pdbqt
DOCKED: USER    NEWDPF about 54.495000 78.699000 10.493000
DOCKED: USER    NEWDPF tran0 54.911360 78.979086 10.559833
DOCKED: USER    NEWDPF quaternion0 0.176381 -0.971772 0.155354 0.020332
DOCKED: USER    NEWDPF axisangle0 0.176418 -0.971973 0.155386 177.670018
DOCKED: USER    NEWDPF quat0 0.176418 -0.971973 0.155386 177.670018
DOCKED: USER    NEWDPF dihe0 133.39 -87.14 179.89 -129.05 -2.98 11.42 146.44 -160.83 
DOCKED: USER  keepresnum = 1 
DOCKED: USER  
DOCKED: REMARK  8 active torsions:
DOCKED: REMARK  status: ('A' for Active; 'I' for Inactive)
DOCKED: REMARK    1  A    between atoms: C2A_3624  and  CAA_3628 
DOCKED: REMARK    2  A    between atoms: CAA_3628  and  CBA_3629 
DOCKED: REMARK    3  A    between atoms: CBA_3629  and  CGA_3630 
DOCKED: REMARK    4  A    between atoms: C3B_3635  and  CAB_3638 
DOCKED: REMARK    5  A    between atoms: C3C_3642  and  CAC_3645 
DOCKED: REMARK    6  A    between atoms: C3D_3649  and  CAD_3652 
DOCKED: REMARK    7  A    between atoms: CAD_3652  and  CBD_3653 
DOCKED: REMARK    8  A    between atoms: CBD_3653  and  CGD_3654 
DOCKED: USER                              x       y       z     vdW  Elec       q    Type
DOCKED: USER                           _______ _______ _______ _____ _____    ______ ____
DOCKED: ROOT
DOCKED: ATOM      1  CHA HEM A1501      54.151  81.198  10.230 -0.28 +0.04    +0.038 A 
DOCKED: ATOM      2  CHB HEM A1501      54.612  77.374   7.348 -0.38 +0.03    +0.038 A 
DOCKED: ATOM      3  CHC HEM A1501      55.465  74.562  11.175 -0.41 +0.01    +0.038 A 
DOCKED: ATOM      4  CHD HEM A1501      55.068  78.404  14.056 -0.39 +0.02    +0.038 A 
DOCKED: ATOM      5  C1A HEM A1501      54.228  80.404   9.090 -0.27 +0.08    +0.079 A 
DOCKED: ATOM      6  C2A HEM A1501      54.076  80.845   7.700 -0.35 -0.01    -0.006 A 
DOCKED: ATOM      7  C3A HEM A1501      54.205  79.773   6.931 -0.36 -0.01    -0.007 A 
DOCKED: ATOM      8  C4A HEM A1501      54.446  78.667   7.806 -0.32 +0.06    +0.079 A 
DOCKED: ATOM      9  CMA HEM A1501      54.139  79.712   5.435 -0.49 +0.03    +0.032 C 
DOCKED: ATOM     10  C1B HEM A1501      54.855  76.259   8.129 -0.36 +0.05    +0.079 A 
DOCKED: ATOM     11  C2B HEM A1501      55.004  74.910   7.598 -0.48 -0.00    -0.003 A 
DOCKED: ATOM     12  C3B HEM A1501      55.228  74.121   8.680 -0.45 +0.01    +0.015 A 
DOCKED: ATOM     13  C4B HEM A1501      55.240  74.989   9.854 -0.37 +0.03    +0.083 A 
DOCKED: ATOM     14  CMB HEM A1501      54.908  74.544   6.142 -0.59 +0.02    +0.033 C 
DOCKED: ATOM     15  C1C HEM A1501      55.475  75.317  12.317 -0.34 +0.03    +0.079 A 
DOCKED: ATOM     16  C2C HEM A1501      55.795  74.833  13.631 -0.42 -0.00    -0.003 A 
DOCKED: ATOM     17  C3C HEM A1501      55.706  75.903  14.462 -0.39 +0.01    +0.015 A 
DOCKED: ATOM     18  C4C HEM A1501      55.316  77.056  13.627 -0.32 +0.03    +0.083 A 
DOCKED: ATOM     19  CMC HEM A1501      56.149  73.390  13.932 -0.54 +0.01    +0.033 C 
DOCKED: ATOM     20  C1D HEM A1501      54.719  79.532  13.274 -0.32 +0.05    +0.079 A 
DOCKED: ATOM     21  C2D HEM A1501      54.494  80.850  13.786 -0.40 -0.00    -0.007 A 
DOCKED: ATOM     22  C3D HEM A1501      54.235  81.640  12.713 -0.35 -0.00    -0.006 A 
DOCKED: ATOM     23  C4D HEM A1501      54.308  80.799  11.534 -0.22 +0.07    +0.079 A 
DOCKED: ATOM     24  CMD HEM A1501      54.540  81.266  15.203 -0.48 +0.01    +0.032 C 
DOCKED: ATOM     25  NA  HEM A1501      54.486  79.059   9.111 -0.19 -0.20    -0.246 N 
DOCKED: ATOM     26  NB  HEM A1501      54.990  76.266   9.497 -0.11 -0.12    -0.246 N 
DOCKED: ATOM     27  NC  HEM A1501      55.221  76.648  12.360 -0.12 -0.11    -0.246 N 
DOCKED: ATOM     28  ND  HEM A1501      54.606  79.528  11.912 -0.11 -0.17    -0.246 N 
DOCKED: ATOM     29 FE   HEM A1501      54.836  77.880  10.741 -0.07 +0.00    +0.000 Fe
DOCKED: ENDROOT
DOCKED: BRANCH   6  30
DOCKED: ATOM     30  CAA HEM A1501      53.830  82.226   7.201 -0.45 +0.06    +0.039 C 
DOCKED: BRANCH  30  31
DOCKED: ATOM     31  CBA HEM A1501      52.478  82.345   6.525 -0.58 +0.15    +0.102 C 
DOCKED: BRANCH  31  32
DOCKED: ATOM     32  CGA HEM A1501      52.097  83.749   6.145 -0.64 +0.36    +0.186 C 
DOCKED: ATOM     33  O1A HEM A1501      52.908  84.672   6.391 -1.18 -1.73    -0.647 OA
DOCKED: ATOM     34  O2A HEM A1501      51.010  83.931   5.559 -0.98 -1.38    -0.647 OA
DOCKED: ENDBRANCH  31  32
DOCKED: ENDBRANCH  30  31
DOCKED: ENDBRANCH   6  30
DOCKED: BRANCH  22  35
DOCKED: ATOM     35  CAD HEM A1501      53.940  83.090  12.803 -0.42 +0.04    +0.039 C 
DOCKED: BRANCH  35  36
DOCKED: ATOM     36  CBD HEM A1501      52.516  83.355  13.289 -0.52 +0.11    +0.102 C 
DOCKED: BRANCH  36  37
DOCKED: ATOM     37  CGD HEM A1501      52.077  84.793  13.084 -0.48 +0.27    +0.186 C 
DOCKED: ATOM     38  O1D HEM A1501      52.835  85.421  12.312 -0.45 -1.46    -0.647 OA
DOCKED: ATOM     39  O2D HEM A1501      50.992  85.287  13.626 -0.77 -0.91    -0.647 OA
DOCKED: ENDBRANCH  36  37
DOCKED: ENDBRANCH  35  36
DOCKED: ENDBRANCH  22  35
DOCKED: BRANCH  17  40
DOCKED: ATOM     40  CAC HEM A1501      55.934  75.952  15.911 -0.55 +0.00    +0.001 C 
DOCKED: ATOM     41  CBC HEM A1501      55.001  76.085  16.867 -0.60 +0.00    +0.000 C 
DOCKED: ENDBRANCH  17  40
DOCKED: BRANCH  12  42
DOCKED: ATOM     42  CAB HEM A1501      55.443  72.660   8.794 -0.53 +0.00    +0.001 C 
DOCKED: ATOM     43  CBB HEM A1501      54.677  71.721   9.312 -0.56 +0.00    +0.000 C 
DOCKED: ENDBRANCH  12  42
DOCKED: TORSDOF 8
DOCKED: TER
DOCKED: ENDMDL
________________________________________________________________________________

DPF> analysis                             # perform a ranked cluster analysis


		CLUSTER ANALYSIS OF CONFORMATIONS
		_________________________________

Number of conformations = 100

RMSD cluster analysis will be performed using the ligand atoms only (43 / 43 total atoms).

Outputting structurally similar clusters, ranked in order of increasing energy.


________________________________________________________________________________

Number of distinct conformational clusters found = 1,  out of 100 runs,
Using an rmsd-tolerance of 2.0 A


	CLUSTERING HISTOGRAM
	____________________

________________________________________________________________________________
     |           |     |           |     |                                    
Clus | Lowest    | Run | Mean      | Num | Histogram                          
-ter | Binding   |     | Binding   | in  |                                    
Rank | Energy    |     | Energy    | Clus|    5    10   15   20   25   30   35
_____|___________|_____|___________|_____|____:____|____:____|____:____|____:___
   1 |    -20.91 |  66 |    -20.22 | 100 |####################################################################################################
_____|___________|_____|___________|_____|______________________________________


Number of multi-member conformational clusters found = 1, out of 100 runs.

	RMSD TABLE
	__________

_____________________________________________________________________
     |      |      |           |         |                 |
Rank | Sub- | Run  | Binding   | Cluster | Reference       | Grep
     | Rank |      | Energy    | RMSD    | RMSD            | Pattern
_____|______|______|___________|_________|_________________|___________
   1      1     66      -20.91      0.00      0.62           RANKING
   1      2     83      -20.86      0.13      0.55           RANKING
   1      3     29      -20.82      0.22      0.46           RANKING
   1      4     26      -20.80      0.34      0.44           RANKING
   1      5    100      -20.77      0.35      0.43           RANKING
   1      6     77      -20.77      0.23      0.48           RANKING
   1      7     81      -20.75      0.18      0.53           RANKING
   1      8     60      -20.74      0.48      0.42           RANKING
   1      9     92      -20.73      0.46      0.34           RANKING
   1     10     49      -20.73      0.39      0.45           RANKING
   1     11     97      -20.72      0.27      0.51           RANKING
   1     12     27      -20.72      0.14      0.58           RANKING
   1     13     80      -20.71      0.22      0.50           RANKING
   1     14     48      -20.70      0.36      0.43           RANKING
   1     15     85      -20.69      0.40      0.39           RANKING
   1     16     38      -20.69      0.45      0.38           RANKING
   1     17     19      -20.69      0.50      0.37           RANKING
   1     18      8      -20.69      0.49      0.40           RANKING
   1     19     88      -20.68      0.31      0.54           RANKING
   1     20     50      -20.67      0.49      0.32           RANKING
   1     21     36      -20.67      0.36      0.70           RANKING
   1     22     76      -20.66      0.45      0.35           RANKING
   1     23     57      -20.65      0.38      0.42           RANKING
   1     24     72      -20.65      0.27      0.56           RANKING
   1     25     90      -20.64      0.49      0.44           RANKING
   1     26     17      -20.63      0.47      0.36           RANKING
   1     27     71      -20.62      0.30      0.47           RANKING
   1     28      5      -20.62      0.60      0.45           RANKING
   1     29     94      -20.61      0.34      0.68           RANKING
   1     30     53      -20.59      0.42      0.42           RANKING
   1     31     96      -20.58      0.48      0.37           RANKING
   1     32     99      -20.58      0.61      0.45           RANKING
   1     33     25      -20.58      0.46      0.43           RANKING
   1     34     14      -20.56      0.30      0.55           RANKING
   1     35     22      -20.56      0.50      0.44           RANKING
   1     36      9      -20.54      0.62      0.40           RANKING
   1     37      4      -20.54      0.31      0.52           RANKING
   1     38     21      -20.54      0.43      0.40           RANKING
   1     39     78      -20.54      0.46      0.37           RANKING
   1     40     84      -20.53      0.40      0.62           RANKING
   1     41      3      -20.52      0.49      0.27           RANKING
   1     42     37      -20.51      0.45      0.41           RANKING
   1     43     46      -20.51      0.72      0.37           RANKING
   1     44     18      -20.49      0.71      0.36           RANKING
   1     45     41      -20.47      0.74      0.38           RANKING
   1     46     52      -20.45      0.51      0.40           RANKING
   1     47     24      -20.44      0.43      0.43           RANKING
   1     48     42      -20.44      0.50      0.41           RANKING
   1     49     62      -20.43      0.51      0.34           RANKING
   1     50     23      -20.42      0.38      0.49           RANKING
   1     51     11      -20.41      0.33      0.46           RANKING
   1     52     87      -20.39      0.61      0.42           RANKING
   1     53     75      -20.38      0.42      0.48           RANKING
   1     54     65      -20.38      0.31      0.62           RANKING
   1     55     51      -20.37      0.64      0.32           RANKING
   1     56     16      -20.37      0.64      0.37           RANKING
   1     57     10      -20.36      0.54      0.45           RANKING
   1     58     28      -20.36      0.46      0.58           RANKING
   1     59     20      -20.35      0.52      0.49           RANKING
   1     60     30      -20.34      0.75      0.48           RANKING
   1     61     82      -20.33      0.55      0.38           RANKING
   1     62     55      -20.33      0.87      0.50           RANKING
   1     63     58      -20.31      0.56      0.40           RANKING
   1     64     45      -20.30      0.49      0.45           RANKING
   1     65     89      -20.29      0.77      0.48           RANKING
   1     66     73      -20.28      0.59      0.39           RANKING
   1     67     86      -20.28      0.43      0.46           RANKING
   1     68     91      -20.28      0.35      0.62           RANKING
   1     69     68      -20.27      0.59      0.41           RANKING
   1     70     56      -20.26      0.66      0.39           RANKING
   1     71     44      -20.25      0.34      0.55           RANKING
   1     72     47      -20.20      0.61      0.42           RANKING
   1     73      1      -20.19      0.43      0.54           RANKING
   1     74     34      -20.15      0.61      0.39           RANKING
   1     75     93      -20.14      0.61      0.41           RANKING
   1     76      7      -20.10      0.51      0.57           RANKING
   1     77     98      -20.10      0.45      0.52           RANKING
   1     78     32      -20.06      0.51      0.49           RANKING
   1     79     70      -20.05      0.80      0.40           RANKING
   1     80     95      -19.99      0.55      0.42           RANKING
   1     81     64      -19.79      0.96      0.63           RANKING
   1     82     15      -19.72      0.65      0.36           RANKING
   1     83     40      -19.71      0.71      0.67           RANKING
   1     84     39      -19.66      0.97      0.60           RANKING
   1     85     13      -19.51      0.85      0.65           RANKING
   1     86     74      -19.46      0.87      0.62           RANKING
   1     87     54      -19.45      1.06      0.82           RANKING
   1     88     61      -19.44      0.87      0.52           RANKING
   1     89     31      -19.30      0.92      0.56           RANKING
   1     90      6      -19.25      0.88      0.67           RANKING
   1     91     35      -19.23      0.89      0.52           RANKING
   1     92     67      -19.14      0.60      0.46           RANKING
   1     93     79      -19.08      1.00      0.72           RANKING
   1     94     63      -18.97      0.92      0.72           RANKING
   1     95     69      -18.95      0.98      0.75           RANKING
   1     96     33      -18.75      1.06      0.71           RANKING
   1     97     59      -18.61      1.18      0.76           RANKING
   1     98     12      -18.47      1.00      0.90           RANKING
   1     99      2      -18.13      0.97      0.83           RANKING
   1    100     43      -18.03      1.32      1.08           RANKING
_______________________________________________________________________



	INFORMATION ENTROPY ANALYSIS FOR THIS CLUSTERING
	________________________________________________


Information entropy for this clustering = 0.00  (rmstol = 2.00 Angstrom)

_______________________________________________________________________


	STATISTICAL MECHANICAL ANALYSIS
	_______________________________


Partition function, Q =   103.47            at Temperature, T = 298.15 K
Free energy,        A ~ -2748.70 kcal/mol   at Temperature, T = 298.15 K
Internal energy,    U =   -20.22 kcal/mol   at Temperature, T = 298.15 K
Entropy,            S =     9.15 kcal/mol/K at Temperature, T = 298.15 K

_______________________________________________________________________


	LOWEST ENERGY DOCKED CONFORMATION from EACH CLUSTER
	___________________________________________________



Keeping original residue number (specified in the input PDBQ file) for outputting.

MODEL       66
USER    Run = 66
USER    Cluster Rank = 1
USER    Number of conformations in this cluster = 100
USER  
USER    RMSD from reference structure       = 0.621 A
USER  
USER    Estimated Free Energy of Binding    =  -20.91 kcal/mol  [=(1)+(2)+(3)-(4)]
USER    Estimated Inhibition Constant, Ki   =  473.98 aM (attomolar)  [Temperature = 298.15 K]
USER    
USER    (1) Final Intermolecular Energy     =  -23.29 kcal/mol
USER        vdW + Hbond + desolv Energy     =  -18.84 kcal/mol
USER        Electrostatic Energy            =   -4.45 kcal/mol
USER    (2) Final Total Internal Energy     =   -0.46 kcal/mol
USER    (3) Torsional Free Energy           =   +2.39 kcal/mol
USER    (4) Unbound System's Energy  [=(2)] =   -0.46 kcal/mol
USER    
USER    
USER  
USER    DPF = C:/Users/georg/Desktop/fall2024/4-Computational_Biology/Assignment/executables/HEM.dpf
USER    NEWDPF move	HEM.pdbqt
USER    NEWDPF about	54.495000 78.699000 10.493000
USER    NEWDPF tran0	54.880038 79.118705 10.898644
USER    NEWDPF axisangle0	0.189498 -0.969652 0.154483 177.471020
USER    NEWDPF quaternion0	0.189451 -0.969416 0.154446 0.022068
USER    NEWDPF dihe0	166.09 -65.20 -167.70 -118.07 1.24 14.00 134.55 -169.16 
USER  
USER                              x       y       z    vdW   Elec        q     RMS 
ATOM      1  CHA HEM A1501      54.060  81.317  10.572 -0.29 +0.04    +0.038     0.621
ATOM      2  CHB HEM A1501      54.621  77.510   7.685 -0.37 +0.03    +0.038     0.621
ATOM      3  CHC HEM A1501      55.552  74.718  11.508 -0.40 +0.01    +0.038     0.621
ATOM      4  CHD HEM A1501      55.056  78.544  14.394 -0.39 +0.01    +0.038     0.621
ATOM      5  C1A HEM A1501      54.158  80.527   9.431 -0.26 +0.08    +0.079     0.621
ATOM      6  C2A HEM A1501      53.993  80.965   8.041 -0.36 -0.01    -0.006     0.621
ATOM      7  C3A HEM A1501      54.149  79.898   7.271 -0.36 -0.01    -0.007     0.621
ATOM      8  C4A HEM A1501      54.421  78.797   8.145 -0.31 +0.06    +0.079     0.621
ATOM      9  CMA HEM A1501      54.084  79.837   5.776 -0.47 +0.03    +0.032     0.621
ATOM     10  C1B HEM A1501      54.895  76.401   8.465 -0.33 +0.04    +0.079     0.621
ATOM     11  C2B HEM A1501      55.079  75.057   7.932 -0.46 -0.00    -0.003     0.621
ATOM     12  C3B HEM A1501      55.325  74.273   9.014 -0.45 +0.01    +0.015     0.621
ATOM     13  C4B HEM A1501      55.315  75.140  10.188 -0.34 +0.03    +0.083     0.621
ATOM     14  CMB HEM A1501      54.991  74.690   6.476 -0.58 +0.02    +0.033     0.621
ATOM     15  C1C HEM A1501      55.543  75.471  12.651 -0.34 +0.03    +0.079     0.621
ATOM     16  C2C HEM A1501      55.877  74.994  13.965 -0.42 -0.00    -0.003     0.621
ATOM     17  C3C HEM A1501      55.761  76.061  14.797 -0.40 +0.01    +0.015     0.621
ATOM     18  C4C HEM A1501      55.339  77.204  13.964 -0.34 +0.03    +0.083     0.621
ATOM     19  CMC HEM A1501      56.270  73.561  14.263 -0.56 +0.01    +0.033     0.621
ATOM     20  C1D HEM A1501      54.675  79.664  13.613 -0.35 +0.04    +0.079     0.621
ATOM     21  C2D HEM A1501      54.416  80.974  14.128 -0.42 -0.00    -0.007     0.621
ATOM     22  C3D HEM A1501      54.134  81.758  13.056 -0.37 -0.00    -0.006     0.621
ATOM     23  C4D HEM A1501      54.229  80.921  11.876 -0.26 +0.07    +0.079     0.621
ATOM     24  CMD HEM A1501      54.452  81.390  15.544 -0.46 +0.01    +0.032     0.621
ATOM     25  NA  HEM A1501      54.452  79.189   9.450 -0.17 -0.20    -0.246     0.621
ATOM     26  NB  HEM A1501      55.031  76.410   9.832 +0.08 -0.12    -0.246     0.621
ATOM     27  NC  HEM A1501      55.254  76.795  12.696 -0.17 -0.11    -0.246     0.621
ATOM     28  ND  HEM A1501      54.562  79.658  12.251 -0.15 -0.17    -0.246     0.621
ATOM     29 FE   HEM A1501      54.834  78.018  11.079 -0.07 +0.00    +0.000     0.621
ATOM     30  CAA HEM A1501      53.709  82.339   7.544 -0.41 +0.06    +0.039     0.621
ATOM     31  CBA HEM A1501      52.503  82.365   6.625 -0.58 +0.15    +0.102     0.621
ATOM     32  CGA HEM A1501      52.124  83.737   6.140 -0.64 +0.36    +0.186     0.621
ATOM     33  O1A HEM A1501      52.942  84.672   6.301 -1.21 -1.70    -0.647     0.621
ATOM     34  O2A HEM A1501      51.030  83.878   5.555 -0.98 -1.37    -0.647     0.621
ATOM     35  CAD HEM A1501      53.801  83.199  13.147 -0.45 +0.04    +0.039     0.621
ATOM     36  CBD HEM A1501      52.318  83.426  13.436 -0.52 +0.11    +0.102     0.621
ATOM     37  CGD HEM A1501      51.870  84.848  13.156 -0.49 +0.26    +0.186     0.621
ATOM     38  O1D HEM A1501      52.589  85.421  12.309 -0.48 -1.39    -0.647     0.621
ATOM     39  O2D HEM A1501      50.811  85.381  13.713 -0.96 -0.91    -0.647     0.621
ATOM     40  CAC HEM A1501      55.988  76.114  16.246 -0.58 +0.00    +0.001     0.621
ATOM     41  CBC HEM A1501      55.183  75.630  17.204 -0.67 +0.00    +0.000     0.621
ATOM     42  CAB HEM A1501      55.579  72.818   9.125 -0.52 +0.00    +0.001     0.621
ATOM     43  CBB HEM A1501      54.740  71.813   9.277 -0.57 +0.00    +0.000     0.621
TER
ENDMDL


AVSFLD: # AVS field file
AVSFLD: #
AVSFLD: # Created by AutoDock
AVSFLD: #
AVSFLD: ndim=2           # number of dimensions in the field
AVSFLD: nspace=1         # number of physical coordinates
AVSFLD: veclen=7         # vector size
AVSFLD: dim1=43          # atoms
AVSFLD: dim2=1           # conformations
AVSFLD: data=Real       # data type (byte,integer,Real,double)
AVSFLD: field=uniform    # field coordinate layout
AVSFLD: label= x y z vdW Elec q RMS
AVSFLD: variable 1 file = C:/Users/georg/Desktop/fall2024/4-Computational_Biology/Assignment/executables/HEM.dlg.pdb filetype = ascii offset = 5 stride = 12
AVSFLD: variable 2 file = C:/Users/georg/Desktop/fall2024/4-Computational_Biology/Assignment/executables/HEM.dlg.pdb filetype = ascii offset = 6 stride = 12
AVSFLD: variable 3 file = C:/Users/georg/Desktop/fall2024/4-Computational_Biology/Assignment/executables/HEM.dlg.pdb filetype = ascii offset = 7 stride = 12
AVSFLD: variable 4 file = C:/Users/georg/Desktop/fall2024/4-Computational_Biology/Assignment/executables/HEM.dlg.pdb filetype = ascii offset = 8 stride = 12
AVSFLD: variable 5 file = C:/Users/georg/Desktop/fall2024/4-Computational_Biology/Assignment/executables/HEM.dlg.pdb filetype = ascii offset = 9 stride = 12
AVSFLD: variable 6 file = C:/Users/georg/Desktop/fall2024/4-Computational_Biology/Assignment/executables/HEM.dlg.pdb filetype = ascii offset = 10 stride = 12
AVSFLD: variable 7 file = C:/Users/georg/Desktop/fall2024/4-Computational_Biology/Assignment/executables/HEM.dlg.pdb filetype = ascii offset = 11 stride = 12
AVSFLD: # end of file

>>> Closing the docking parameter file (DPF)...
This docking finished at:			9:22 16" p.m., 11/25/2024


________________________________________________________________________________

C:/Users/georg/Desktop/fall2024/4-Computational_Biology/Assignment/executables/autodock4.exe: Successful Completion on "NORA"

Real= 38m 35.20s,  CPU= 51.80s,  System= 2.48s
________________________________________________________________________________

